V -t * -v 1.0a5 -a 0
W -t * -x 992.5 -y 960.5
A -t * -n 1 -p 0 -o 0x7fffffff -c 30 -a 1
A -t * -h 1 -m 1073741823 -s 0
c -t * -i 1 -n green
c -t * -i 2 -n Orange
c -t * -i 3 -n Red
n -t * -a 17 -s 17 -S UP -v circle -c black -i black -x 364.5 -y 201.5 -Z 0
n -t * -a 0 -s 0 -S UP -v circle -c black -i black -x 992.5 -y 565.5 -Z 0
n -t * -a 18 -s 18 -S UP -v circle -c black -i black -x 717.5 -y 297.5 -Z 0
n -t * -a 1 -s 1 -S UP -v circle -c black -i black -x 143.5 -y 225.5 -Z 0
n -t * -a 19 -s 19 -S UP -v circle -c black -i black -x 414.5 -y 937.5 -Z 0
n -t * -a 2 -s 2 -S UP -v circle -c black -i black -x 602.5 -y 938.5 -Z 0
n -t * -a 3 -s 3 -S UP -v circle -c black -i black -x 984.5 -y 66.5 -Z 0
n -t * -a 4 -s 4 -S UP -v circle -c black -i black -x 591.5 -y 865.5 -Z 0
n -t * -a 5 -s 5 -S UP -v circle -c black -i black -x 689.5 -y 883.5 -Z 0
n -t * -a 6 -s 6 -S UP -v circle -c black -i black -x 568.5 -y 157.5 -Z 0
n -t * -a 7 -s 7 -S UP -v circle -c black -i black -x 643.5 -y 518.5 -Z 0
n -t * -a 8 -s 8 -S UP -v circle -c black -i black -x 462.5 -y 848.5 -Z 0
n -t * -a 9 -s 9 -S UP -v circle -c black -i black -x 700.5 -y 322.5 -Z 0
n -t * -a 10 -s 10 -S UP -v circle -c black -i black -x 486.5 -y 905.5 -Z 0
n -t * -a 11 -s 11 -S UP -v circle -c black -i black -x 782.5 -y 771.5 -Z 0
n -t * -a 12 -s 12 -S UP -v circle -c black -i black -x 116.5 -y 473.5 -Z 0
n -t * -a 13 -s 13 -S UP -v circle -c black -i black -x 244.5 -y 39.5 -Z 0
n -t * -a 14 -s 14 -S UP -v circle -c black -i black -x 226.5 -y 960.5 -Z 0
n -t * -a 15 -s 15 -S UP -v circle -c black -i black -x 817.5 -y 866.5 -Z 0
n -t * -a 16 -s 16 -S UP -v circle -c black -i black -x 18.5 -y 855.5 -Z 0
l -t * -s 0 -d 10 -S UP -r 1000000 -D 0.002 -c black
l -t * -s 1 -d 11 -S UP -r 1000000 -D 0.002 -c black
l -t * -s 2 -d 12 -S UP -r 1000000 -D 0.002 -c black
l -t * -s 3 -d 13 -S UP -r 1000000 -D 0.002 -c black
l -t * -s 4 -d 14 -S UP -r 1000000 -D 0.002 -c black
l -t * -s 5 -d 15 -S UP -r 1000000 -D 0.002 -c black
l -t * -s 6 -d 16 -S UP -r 1000000 -D 0.002 -c black
l -t * -s 7 -d 17 -S UP -r 1000000 -D 0.002 -c black
l -t * -s 8 -d 18 -S UP -r 1000000 -D 0.002 -c black
l -t * -s 9 -d 19 -S UP -r 1000000 -D 0.002 -c black
+ -t 1.09988059229215 -s 1 -d 11 -p tcp -e 1000 -c 4 -i 0 -a 4 -x {1.0 11.0 0 ------- null}
- -t 1.09988059229215 -s 1 -d 11 -p tcp -e 1000 -c 4 -i 0 -a 4 -x {1.0 11.0 0 ------- null}
h -t 1.09988059229215 -s 1 -d 11 -p tcp -e 1000 -c 4 -i 0 -a 4 -x {1.0 11.0 -1 ------- null}
r -t 1.10988059229215 -s 1 -d 11 -p tcp -e 1000 -c 4 -i 0 -a 4 -x {1.0 11.0 0 ------- null}
+ -t 1.10988059229215 -s 11 -d 1 -p ack -e 40 -c 4 -i 1 -a 4 -x {11.0 1.0 0 ------- null}
- -t 1.10988059229215 -s 11 -d 1 -p ack -e 40 -c 4 -i 1 -a 4 -x {11.0 1.0 0 ------- null}
h -t 1.10988059229215 -s 11 -d 1 -p ack -e 40 -c 4 -i 1 -a 4 -x {11.0 1.0 -1 ------- null}
r -t 1.11220059229215 -s 11 -d 1 -p ack -e 40 -c 4 -i 1 -a 4 -x {11.0 1.0 0 ------- null}
+ -t 1.11941036967279 -s 3 -d 13 -p tcp -e 1000 -c 9 -i 2 -a 9 -x {3.1 13.1 0 ------- null}
- -t 1.11941036967279 -s 3 -d 13 -p tcp -e 1000 -c 9 -i 2 -a 9 -x {3.1 13.1 0 ------- null}
h -t 1.11941036967279 -s 3 -d 13 -p tcp -e 1000 -c 9 -i 2 -a 9 -x {3.1 13.1 -1 ------- null}
r -t 1.12941036967279 -s 3 -d 13 -p tcp -e 1000 -c 9 -i 2 -a 9 -x {3.1 13.1 0 ------- null}
+ -t 1.12941036967279 -s 13 -d 3 -p ack -e 40 -c 9 -i 3 -a 9 -x {13.1 3.1 0 ------- null}
- -t 1.12941036967279 -s 13 -d 3 -p ack -e 40 -c 9 -i 3 -a 9 -x {13.1 3.1 0 ------- null}
h -t 1.12941036967279 -s 13 -d 3 -p ack -e 40 -c 9 -i 3 -a 9 -x {13.1 3.1 -1 ------- null}
r -t 1.13173036967279 -s 13 -d 3 -p ack -e 40 -c 9 -i 3 -a 9 -x {13.1 3.1 0 ------- null}
+ -t 1.15511326394067 -s 1 -d 11 -p tcp -e 1000 -c 4 -i 4 -a 4 -x {1.0 11.0 1 ------- null}
- -t 1.15511326394067 -s 1 -d 11 -p tcp -e 1000 -c 4 -i 4 -a 4 -x {1.0 11.0 1 ------- null}
h -t 1.15511326394067 -s 1 -d 11 -p tcp -e 1000 -c 4 -i 4 -a 4 -x {1.0 11.0 -1 ------- null}
+ -t 1.16121795031653 -s 0 -d 10 -p tcp -e 1000 -c 1 -i 5 -a 1 -x {0.0 10.0 0 ------- null}
- -t 1.16121795031653 -s 0 -d 10 -p tcp -e 1000 -c 1 -i 5 -a 1 -x {0.0 10.0 0 ------- null}
h -t 1.16121795031653 -s 0 -d 10 -p tcp -e 1000 -c 1 -i 5 -a 1 -x {0.0 10.0 -1 ------- null}
r -t 1.16511326394067 -s 1 -d 11 -p tcp -e 1000 -c 4 -i 4 -a 4 -x {1.0 11.0 1 ------- null}
+ -t 1.16511326394067 -s 11 -d 1 -p ack -e 40 -c 4 -i 6 -a 4 -x {11.0 1.0 1 ------- null}
- -t 1.16511326394067 -s 11 -d 1 -p ack -e 40 -c 4 -i 6 -a 4 -x {11.0 1.0 1 ------- null}
h -t 1.16511326394067 -s 11 -d 1 -p ack -e 40 -c 4 -i 6 -a 4 -x {11.0 1.0 -1 ------- null}
r -t 1.16743326394067 -s 11 -d 1 -p ack -e 40 -c 4 -i 6 -a 4 -x {11.0 1.0 1 ------- null}
r -t 1.17121795031653 -s 0 -d 10 -p tcp -e 1000 -c 1 -i 5 -a 1 -x {0.0 10.0 0 ------- null}
+ -t 1.17121795031653 -s 10 -d 0 -p ack -e 40 -c 1 -i 7 -a 1 -x {10.0 0.0 0 ------- null}
- -t 1.17121795031653 -s 10 -d 0 -p ack -e 40 -c 1 -i 7 -a 1 -x {10.0 0.0 0 ------- null}
h -t 1.17121795031653 -s 10 -d 0 -p ack -e 40 -c 1 -i 7 -a 1 -x {10.0 0.0 -1 ------- null}
r -t 1.17353795031653 -s 10 -d 0 -p ack -e 40 -c 1 -i 7 -a 1 -x {10.0 0.0 0 ------- null}
+ -t 1.23443092538474 -s 3 -d 13 -p tcp -e 1000 -c 9 -i 8 -a 9 -x {3.1 13.1 1 ------- null}
- -t 1.23443092538474 -s 3 -d 13 -p tcp -e 1000 -c 9 -i 8 -a 9 -x {3.1 13.1 1 ------- null}
h -t 1.23443092538474 -s 3 -d 13 -p tcp -e 1000 -c 9 -i 8 -a 9 -x {3.1 13.1 -1 ------- null}
r -t 1.24443092538474 -s 3 -d 13 -p tcp -e 1000 -c 9 -i 8 -a 9 -x {3.1 13.1 1 ------- null}
+ -t 1.24443092538474 -s 13 -d 3 -p ack -e 40 -c 9 -i 9 -a 9 -x {13.1 3.1 1 ------- null}
- -t 1.24443092538474 -s 13 -d 3 -p ack -e 40 -c 9 -i 9 -a 9 -x {13.1 3.1 1 ------- null}
h -t 1.24443092538474 -s 13 -d 3 -p ack -e 40 -c 9 -i 9 -a 9 -x {13.1 3.1 -1 ------- null}
r -t 1.24675092538474 -s 13 -d 3 -p ack -e 40 -c 9 -i 9 -a 9 -x {13.1 3.1 1 ------- null}
+ -t 1.27150444833195 -s 8 -d 18 -p tcp -e 1000 -c 3 -i 10 -a 3 -x {8.1 18.1 0 ------- null}
- -t 1.27150444833195 -s 8 -d 18 -p tcp -e 1000 -c 3 -i 10 -a 3 -x {8.1 18.1 0 ------- null}
h -t 1.27150444833195 -s 8 -d 18 -p tcp -e 1000 -c 3 -i 10 -a 3 -x {8.1 18.1 -1 ------- null}
r -t 1.28150444833195 -s 8 -d 18 -p tcp -e 1000 -c 3 -i 10 -a 3 -x {8.1 18.1 0 ------- null}
+ -t 1.28150444833195 -s 18 -d 8 -p ack -e 40 -c 3 -i 11 -a 3 -x {18.1 8.1 0 ------- null}
- -t 1.28150444833195 -s 18 -d 8 -p ack -e 40 -c 3 -i 11 -a 3 -x {18.1 8.1 0 ------- null}
h -t 1.28150444833195 -s 18 -d 8 -p ack -e 40 -c 3 -i 11 -a 3 -x {18.1 8.1 -1 ------- null}
r -t 1.28382444833195 -s 18 -d 8 -p ack -e 40 -c 3 -i 11 -a 3 -x {18.1 8.1 0 ------- null}
+ -t 1.38956871320104 -s 3 -d 13 -p tcp -e 1000 -c 2 -i 12 -a 2 -x {3.0 13.0 0 ------- null}
- -t 1.38956871320104 -s 3 -d 13 -p tcp -e 1000 -c 2 -i 12 -a 2 -x {3.0 13.0 0 ------- null}
h -t 1.38956871320104 -s 3 -d 13 -p tcp -e 1000 -c 2 -i 12 -a 2 -x {3.0 13.0 -1 ------- null}
r -t 1.39956871320104 -s 3 -d 13 -p tcp -e 1000 -c 2 -i 12 -a 2 -x {3.0 13.0 0 ------- null}
+ -t 1.39956871320104 -s 13 -d 3 -p ack -e 40 -c 2 -i 13 -a 2 -x {13.0 3.0 0 ------- null}
- -t 1.39956871320104 -s 13 -d 3 -p ack -e 40 -c 2 -i 13 -a 2 -x {13.0 3.0 0 ------- null}
h -t 1.39956871320104 -s 13 -d 3 -p ack -e 40 -c 2 -i 13 -a 2 -x {13.0 3.0 -1 ------- null}
r -t 1.40188871320104 -s 13 -d 3 -p ack -e 40 -c 2 -i 13 -a 2 -x {13.0 3.0 0 ------- null}
+ -t 1.79065229293516 -s 8 -d 18 -p tcp -e 1000 -c 3 -i 14 -a 3 -x {8.1 18.1 1 ------- null}
- -t 1.79065229293516 -s 8 -d 18 -p tcp -e 1000 -c 3 -i 14 -a 3 -x {8.1 18.1 1 ------- null}
h -t 1.79065229293516 -s 8 -d 18 -p tcp -e 1000 -c 3 -i 14 -a 3 -x {8.1 18.1 -1 ------- null}
r -t 1.80065229293516 -s 8 -d 18 -p tcp -e 1000 -c 3 -i 14 -a 3 -x {8.1 18.1 1 ------- null}
+ -t 1.80065229293516 -s 18 -d 8 -p ack -e 40 -c 3 -i 15 -a 3 -x {18.1 8.1 1 ------- null}
- -t 1.80065229293516 -s 18 -d 8 -p ack -e 40 -c 3 -i 15 -a 3 -x {18.1 8.1 1 ------- null}
h -t 1.80065229293516 -s 18 -d 8 -p ack -e 40 -c 3 -i 15 -a 3 -x {18.1 8.1 -1 ------- null}
r -t 1.80297229293516 -s 18 -d 8 -p ack -e 40 -c 3 -i 15 -a 3 -x {18.1 8.1 1 ------- null}
+ -t 1.90258736049211 -s 1 -d 11 -p tcp -e 1000 -c 5 -i 16 -a 5 -x {1.1 11.1 0 ------- null}
- -t 1.90258736049211 -s 1 -d 11 -p tcp -e 1000 -c 5 -i 16 -a 5 -x {1.1 11.1 0 ------- null}
h -t 1.90258736049211 -s 1 -d 11 -p tcp -e 1000 -c 5 -i 16 -a 5 -x {1.1 11.1 -1 ------- null}
+ -t 1.90582684944423 -s 1 -d 11 -p tcp -e 1000 -c 7 -i 17 -a 7 -x {1.2 11.2 0 ------- null}
- -t 1.91058736049211 -s 1 -d 11 -p tcp -e 1000 -c 7 -i 17 -a 7 -x {1.2 11.2 0 ------- null}
h -t 1.91058736049211 -s 1 -d 11 -p tcp -e 1000 -c 7 -i 17 -a 7 -x {1.2 11.2 -1 ------- null}
r -t 1.91258736049211 -s 1 -d 11 -p tcp -e 1000 -c 5 -i 16 -a 5 -x {1.1 11.1 0 ------- null}
+ -t 1.91258736049211 -s 11 -d 1 -p ack -e 40 -c 5 -i 18 -a 5 -x {11.1 1.1 0 ------- null}
- -t 1.91258736049211 -s 11 -d 1 -p ack -e 40 -c 5 -i 18 -a 5 -x {11.1 1.1 0 ------- null}
h -t 1.91258736049211 -s 11 -d 1 -p ack -e 40 -c 5 -i 18 -a 5 -x {11.1 1.1 -1 ------- null}
r -t 1.91490736049211 -s 11 -d 1 -p ack -e 40 -c 5 -i 18 -a 5 -x {11.1 1.1 0 ------- null}
r -t 1.92058736049211 -s 1 -d 11 -p tcp -e 1000 -c 7 -i 17 -a 7 -x {1.2 11.2 0 ------- null}
+ -t 1.92058736049211 -s 11 -d 1 -p ack -e 40 -c 7 -i 19 -a 7 -x {11.2 1.2 0 ------- null}
- -t 1.92058736049211 -s 11 -d 1 -p ack -e 40 -c 7 -i 19 -a 7 -x {11.2 1.2 0 ------- null}
h -t 1.92058736049211 -s 11 -d 1 -p ack -e 40 -c 7 -i 19 -a 7 -x {11.2 1.2 -1 ------- null}
r -t 1.92290736049211 -s 11 -d 1 -p ack -e 40 -c 7 -i 19 -a 7 -x {11.2 1.2 0 ------- null}
+ -t 2.30512093015123 -s 1 -d 11 -p tcp -e 1000 -c 5 -i 20 -a 5 -x {1.1 11.1 1 ------- null}
- -t 2.30512093015123 -s 1 -d 11 -p tcp -e 1000 -c 5 -i 20 -a 5 -x {1.1 11.1 1 ------- null}
h -t 2.30512093015123 -s 1 -d 11 -p tcp -e 1000 -c 5 -i 20 -a 5 -x {1.1 11.1 -1 ------- null}
r -t 2.31512093015123 -s 1 -d 11 -p tcp -e 1000 -c 5 -i 20 -a 5 -x {1.1 11.1 1 ------- null}
+ -t 2.31512093015123 -s 11 -d 1 -p ack -e 40 -c 5 -i 21 -a 5 -x {11.1 1.1 1 ------- null}
- -t 2.31512093015123 -s 11 -d 1 -p ack -e 40 -c 5 -i 21 -a 5 -x {11.1 1.1 1 ------- null}
h -t 2.31512093015123 -s 11 -d 1 -p ack -e 40 -c 5 -i 21 -a 5 -x {11.1 1.1 -1 ------- null}
r -t 2.31744093015123 -s 11 -d 1 -p ack -e 40 -c 5 -i 21 -a 5 -x {11.1 1.1 1 ------- null}
+ -t 2.42202256774115 -s 8 -d 18 -p tcp -e 1000 -c 0 -i 22 -a 0 -x {8.0 18.0 0 ------- null}
- -t 2.42202256774115 -s 8 -d 18 -p tcp -e 1000 -c 0 -i 22 -a 0 -x {8.0 18.0 0 ------- null}
h -t 2.42202256774115 -s 8 -d 18 -p tcp -e 1000 -c 0 -i 22 -a 0 -x {8.0 18.0 -1 ------- null}
r -t 2.43202256774115 -s 8 -d 18 -p tcp -e 1000 -c 0 -i 22 -a 0 -x {8.0 18.0 0 ------- null}
+ -t 2.43202256774115 -s 18 -d 8 -p ack -e 40 -c 0 -i 23 -a 0 -x {18.0 8.0 0 ------- null}
- -t 2.43202256774115 -s 18 -d 8 -p ack -e 40 -c 0 -i 23 -a 0 -x {18.0 8.0 0 ------- null}
h -t 2.43202256774115 -s 18 -d 8 -p ack -e 40 -c 0 -i 23 -a 0 -x {18.0 8.0 -1 ------- null}
r -t 2.43434256774115 -s 18 -d 8 -p ack -e 40 -c 0 -i 23 -a 0 -x {18.0 8.0 0 ------- null}
+ -t 2.48121703149417 -s 3 -d 13 -p tcp -e 1000 -c 2 -i 24 -a 2 -x {3.0 13.0 1 ------- null}
- -t 2.48121703149417 -s 3 -d 13 -p tcp -e 1000 -c 2 -i 24 -a 2 -x {3.0 13.0 1 ------- null}
h -t 2.48121703149417 -s 3 -d 13 -p tcp -e 1000 -c 2 -i 24 -a 2 -x {3.0 13.0 -1 ------- null}
r -t 2.49121703149417 -s 3 -d 13 -p tcp -e 1000 -c 2 -i 24 -a 2 -x {3.0 13.0 1 ------- null}
+ -t 2.49121703149417 -s 13 -d 3 -p ack -e 40 -c 2 -i 25 -a 2 -x {13.0 3.0 1 ------- null}
- -t 2.49121703149417 -s 13 -d 3 -p ack -e 40 -c 2 -i 25 -a 2 -x {13.0 3.0 1 ------- null}
h -t 2.49121703149417 -s 13 -d 3 -p ack -e 40 -c 2 -i 25 -a 2 -x {13.0 3.0 -1 ------- null}
r -t 2.49353703149417 -s 13 -d 3 -p ack -e 40 -c 2 -i 25 -a 2 -x {13.0 3.0 1 ------- null}
+ -t 2.61285801383579 -s 3 -d 13 -p tcp -e 1000 -c 2 -i 26 -a 2 -x {3.0 13.0 2 ------- null}
- -t 2.61285801383579 -s 3 -d 13 -p tcp -e 1000 -c 2 -i 26 -a 2 -x {3.0 13.0 2 ------- null}
h -t 2.61285801383579 -s 3 -d 13 -p tcp -e 1000 -c 2 -i 26 -a 2 -x {3.0 13.0 -1 ------- null}
r -t 2.62285801383579 -s 3 -d 13 -p tcp -e 1000 -c 2 -i 26 -a 2 -x {3.0 13.0 2 ------- null}
+ -t 2.62285801383579 -s 13 -d 3 -p ack -e 40 -c 2 -i 27 -a 2 -x {13.0 3.0 2 ------- null}
- -t 2.62285801383579 -s 13 -d 3 -p ack -e 40 -c 2 -i 27 -a 2 -x {13.0 3.0 2 ------- null}
h -t 2.62285801383579 -s 13 -d 3 -p ack -e 40 -c 2 -i 27 -a 2 -x {13.0 3.0 -1 ------- null}
r -t 2.62517801383579 -s 13 -d 3 -p ack -e 40 -c 2 -i 27 -a 2 -x {13.0 3.0 2 ------- null}
+ -t 2.66369306335828 -s 1 -d 11 -p tcp -e 1000 -c 5 -i 28 -a 5 -x {1.1 11.1 2 ------- null}
- -t 2.66369306335828 -s 1 -d 11 -p tcp -e 1000 -c 5 -i 28 -a 5 -x {1.1 11.1 2 ------- null}
h -t 2.66369306335828 -s 1 -d 11 -p tcp -e 1000 -c 5 -i 28 -a 5 -x {1.1 11.1 -1 ------- null}
r -t 2.67369306335828 -s 1 -d 11 -p tcp -e 1000 -c 5 -i 28 -a 5 -x {1.1 11.1 2 ------- null}
+ -t 2.67369306335828 -s 11 -d 1 -p ack -e 40 -c 5 -i 29 -a 5 -x {11.1 1.1 2 ------- null}
- -t 2.67369306335828 -s 11 -d 1 -p ack -e 40 -c 5 -i 29 -a 5 -x {11.1 1.1 2 ------- null}
h -t 2.67369306335828 -s 11 -d 1 -p ack -e 40 -c 5 -i 29 -a 5 -x {11.1 1.1 -1 ------- null}
+ -t 2.67469540232576 -s 1 -d 11 -p tcp -e 1000 -c 8 -i 30 -a 8 -x {1.3 11.3 0 ------- null}
- -t 2.67469540232576 -s 1 -d 11 -p tcp -e 1000 -c 8 -i 30 -a 8 -x {1.3 11.3 0 ------- null}
h -t 2.67469540232576 -s 1 -d 11 -p tcp -e 1000 -c 8 -i 30 -a 8 -x {1.3 11.3 -1 ------- null}
r -t 2.67601306335828 -s 11 -d 1 -p ack -e 40 -c 5 -i 29 -a 5 -x {11.1 1.1 2 ------- null}
r -t 2.68469540232576 -s 1 -d 11 -p tcp -e 1000 -c 8 -i 30 -a 8 -x {1.3 11.3 0 ------- null}
+ -t 2.68469540232576 -s 11 -d 1 -p ack -e 40 -c 8 -i 31 -a 8 -x {11.3 1.3 0 ------- null}
- -t 2.68469540232576 -s 11 -d 1 -p ack -e 40 -c 8 -i 31 -a 8 -x {11.3 1.3 0 ------- null}
h -t 2.68469540232576 -s 11 -d 1 -p ack -e 40 -c 8 -i 31 -a 8 -x {11.3 1.3 -1 ------- null}
r -t 2.68701540232576 -s 11 -d 1 -p ack -e 40 -c 8 -i 31 -a 8 -x {11.3 1.3 0 ------- null}
+ -t 3.02931877151815 -s 8 -d 18 -p tcp -e 1000 -c 0 -i 32 -a 0 -x {8.0 18.0 1 ------- null}
- -t 3.02931877151815 -s 8 -d 18 -p tcp -e 1000 -c 0 -i 32 -a 0 -x {8.0 18.0 1 ------- null}
h -t 3.02931877151815 -s 8 -d 18 -p tcp -e 1000 -c 0 -i 32 -a 0 -x {8.0 18.0 -1 ------- null}
+ -t 3.03434256774115 -s 8 -d 18 -p tcp -e 1000 -c 0 -i 33 -a 0 -x {8.0 18.0 1 ------- null}
- -t 3.03731877151815 -s 8 -d 18 -p tcp -e 1000 -c 0 -i 33 -a 0 -x {8.0 18.0 1 ------- null}
h -t 3.03731877151815 -s 8 -d 18 -p tcp -e 1000 -c 0 -i 33 -a 0 -x {8.0 18.0 -1 ------- null}
r -t 3.03931877151815 -s 8 -d 18 -p tcp -e 1000 -c 0 -i 32 -a 0 -x {8.0 18.0 1 ------- null}
+ -t 3.03931877151815 -s 18 -d 8 -p ack -e 40 -c 0 -i 34 -a 0 -x {18.0 8.0 1 ------- null}
- -t 3.03931877151815 -s 18 -d 8 -p ack -e 40 -c 0 -i 34 -a 0 -x {18.0 8.0 1 ------- null}
h -t 3.03931877151815 -s 18 -d 8 -p ack -e 40 -c 0 -i 34 -a 0 -x {18.0 8.0 -1 ------- null}
r -t 3.04163877151815 -s 18 -d 8 -p ack -e 40 -c 0 -i 34 -a 0 -x {18.0 8.0 1 ------- null}
r -t 3.04731877151815 -s 8 -d 18 -p tcp -e 1000 -c 0 -i 33 -a 0 -x {8.0 18.0 1 ------- null}
+ -t 3.04731877151815 -s 18 -d 8 -p ack -e 40 -c 0 -i 35 -a 0 -x {18.0 8.0 1 ------- null}
- -t 3.04731877151815 -s 18 -d 8 -p ack -e 40 -c 0 -i 35 -a 0 -x {18.0 8.0 1 ------- null}
h -t 3.04731877151815 -s 18 -d 8 -p ack -e 40 -c 0 -i 35 -a 0 -x {18.0 8.0 -1 ------- null}
r -t 3.04963877151815 -s 18 -d 8 -p ack -e 40 -c 0 -i 35 -a 0 -x {18.0 8.0 1 ------- null}
+ -t 3.21458820908264 -s 9 -d 19 -p tcp -e 1000 -c 6 -i 36 -a 6 -x {9.0 19.0 0 ------- null}
- -t 3.21458820908264 -s 9 -d 19 -p tcp -e 1000 -c 6 -i 36 -a 6 -x {9.0 19.0 0 ------- null}
h -t 3.21458820908264 -s 9 -d 19 -p tcp -e 1000 -c 6 -i 36 -a 6 -x {9.0 19.0 -1 ------- null}
r -t 3.22458820908264 -s 9 -d 19 -p tcp -e 1000 -c 6 -i 36 -a 6 -x {9.0 19.0 0 ------- null}
+ -t 3.22458820908264 -s 19 -d 9 -p ack -e 40 -c 6 -i 37 -a 6 -x {19.0 9.0 0 ------- null}
- -t 3.22458820908264 -s 19 -d 9 -p ack -e 40 -c 6 -i 37 -a 6 -x {19.0 9.0 0 ------- null}
h -t 3.22458820908264 -s 19 -d 9 -p ack -e 40 -c 6 -i 37 -a 6 -x {19.0 9.0 -1 ------- null}
r -t 3.22690820908264 -s 19 -d 9 -p ack -e 40 -c 6 -i 37 -a 6 -x {19.0 9.0 0 ------- null}
+ -t 3.25276914681916 -s 1 -d 11 -p tcp -e 1000 -c 5 -i 38 -a 5 -x {1.1 11.1 3 ------- null}
- -t 3.25276914681916 -s 1 -d 11 -p tcp -e 1000 -c 5 -i 38 -a 5 -x {1.1 11.1 3 ------- null}
h -t 3.25276914681916 -s 1 -d 11 -p tcp -e 1000 -c 5 -i 38 -a 5 -x {1.1 11.1 -1 ------- null}
r -t 3.26276914681916 -s 1 -d 11 -p tcp -e 1000 -c 5 -i 38 -a 5 -x {1.1 11.1 3 ------- null}
+ -t 3.26276914681916 -s 11 -d 1 -p ack -e 40 -c 5 -i 39 -a 5 -x {11.1 1.1 3 ------- null}
- -t 3.26276914681916 -s 11 -d 1 -p ack -e 40 -c 5 -i 39 -a 5 -x {11.1 1.1 3 ------- null}
h -t 3.26276914681916 -s 11 -d 1 -p ack -e 40 -c 5 -i 39 -a 5 -x {11.1 1.1 -1 ------- null}
+ -t 3.26453040463295 -s 1 -d 11 -p tcp -e 1000 -c 7 -i 40 -a 7 -x {1.2 11.2 1 ------- null}
- -t 3.26453040463295 -s 1 -d 11 -p tcp -e 1000 -c 7 -i 40 -a 7 -x {1.2 11.2 1 ------- null}
h -t 3.26453040463295 -s 1 -d 11 -p tcp -e 1000 -c 7 -i 40 -a 7 -x {1.2 11.2 -1 ------- null}
r -t 3.26508914681916 -s 11 -d 1 -p ack -e 40 -c 5 -i 39 -a 5 -x {11.1 1.1 3 ------- null}
r -t 3.27453040463295 -s 1 -d 11 -p tcp -e 1000 -c 7 -i 40 -a 7 -x {1.2 11.2 1 ------- null}
+ -t 3.27453040463295 -s 11 -d 1 -p ack -e 40 -c 7 -i 41 -a 7 -x {11.2 1.2 1 ------- null}
- -t 3.27453040463295 -s 11 -d 1 -p ack -e 40 -c 7 -i 41 -a 7 -x {11.2 1.2 1 ------- null}
h -t 3.27453040463295 -s 11 -d 1 -p ack -e 40 -c 7 -i 41 -a 7 -x {11.2 1.2 -1 ------- null}
r -t 3.27685040463295 -s 11 -d 1 -p ack -e 40 -c 7 -i 41 -a 7 -x {11.2 1.2 1 ------- null}
+ -t 3.34409010574012 -s 1 -d 11 -p tcp -e 1000 -c 4 -i 42 -a 4 -x {1.0 11.0 2 ------- null}
- -t 3.34409010574012 -s 1 -d 11 -p tcp -e 1000 -c 4 -i 42 -a 4 -x {1.0 11.0 2 ------- null}
h -t 3.34409010574012 -s 1 -d 11 -p tcp -e 1000 -c 4 -i 42 -a 4 -x {1.0 11.0 -1 ------- null}
r -t 3.35409010574012 -s 1 -d 11 -p tcp -e 1000 -c 4 -i 42 -a 4 -x {1.0 11.0 2 ------- null}
+ -t 3.35409010574012 -s 11 -d 1 -p ack -e 40 -c 4 -i 43 -a 4 -x {11.0 1.0 2 ------- null}
- -t 3.35409010574012 -s 11 -d 1 -p ack -e 40 -c 4 -i 43 -a 4 -x {11.0 1.0 2 ------- null}
h -t 3.35409010574012 -s 11 -d 1 -p ack -e 40 -c 4 -i 43 -a 4 -x {11.0 1.0 -1 ------- null}
r -t 3.35641010574012 -s 11 -d 1 -p ack -e 40 -c 4 -i 43 -a 4 -x {11.0 1.0 2 ------- null}
+ -t 3.39874040836919 -s 1 -d 11 -p tcp -e 1000 -c 4 -i 44 -a 4 -x {1.0 11.0 3 ------- null}
- -t 3.39874040836919 -s 1 -d 11 -p tcp -e 1000 -c 4 -i 44 -a 4 -x {1.0 11.0 3 ------- null}
h -t 3.39874040836919 -s 1 -d 11 -p tcp -e 1000 -c 4 -i 44 -a 4 -x {1.0 11.0 -1 ------- null}
r -t 3.40874040836919 -s 1 -d 11 -p tcp -e 1000 -c 4 -i 44 -a 4 -x {1.0 11.0 3 ------- null}
+ -t 3.40874040836919 -s 11 -d 1 -p ack -e 40 -c 4 -i 45 -a 4 -x {11.0 1.0 3 ------- null}
- -t 3.40874040836919 -s 11 -d 1 -p ack -e 40 -c 4 -i 45 -a 4 -x {11.0 1.0 3 ------- null}
h -t 3.40874040836919 -s 11 -d 1 -p ack -e 40 -c 4 -i 45 -a 4 -x {11.0 1.0 -1 ------- null}
r -t 3.41106040836919 -s 11 -d 1 -p ack -e 40 -c 4 -i 45 -a 4 -x {11.0 1.0 3 ------- null}
+ -t 3.50661839582743 -s 1 -d 11 -p tcp -e 1000 -c 7 -i 46 -a 7 -x {1.2 11.2 2 ------- null}
- -t 3.50661839582743 -s 1 -d 11 -p tcp -e 1000 -c 7 -i 46 -a 7 -x {1.2 11.2 2 ------- null}
h -t 3.50661839582743 -s 1 -d 11 -p tcp -e 1000 -c 7 -i 46 -a 7 -x {1.2 11.2 -1 ------- null}
r -t 3.51661839582743 -s 1 -d 11 -p tcp -e 1000 -c 7 -i 46 -a 7 -x {1.2 11.2 2 ------- null}
+ -t 3.51661839582743 -s 11 -d 1 -p ack -e 40 -c 7 -i 47 -a 7 -x {11.2 1.2 2 ------- null}
- -t 3.51661839582743 -s 11 -d 1 -p ack -e 40 -c 7 -i 47 -a 7 -x {11.2 1.2 2 ------- null}
h -t 3.51661839582743 -s 11 -d 1 -p ack -e 40 -c 7 -i 47 -a 7 -x {11.2 1.2 -1 ------- null}
r -t 3.51893839582743 -s 11 -d 1 -p ack -e 40 -c 7 -i 47 -a 7 -x {11.2 1.2 2 ------- null}
+ -t 3.52874569315417 -s 1 -d 11 -p tcp -e 1000 -c 8 -i 48 -a 8 -x {1.3 11.3 1 ------- null}
- -t 3.52874569315417 -s 1 -d 11 -p tcp -e 1000 -c 8 -i 48 -a 8 -x {1.3 11.3 1 ------- null}
h -t 3.52874569315417 -s 1 -d 11 -p tcp -e 1000 -c 8 -i 48 -a 8 -x {1.3 11.3 -1 ------- null}
r -t 3.53874569315417 -s 1 -d 11 -p tcp -e 1000 -c 8 -i 48 -a 8 -x {1.3 11.3 1 ------- null}
+ -t 3.53874569315417 -s 11 -d 1 -p ack -e 40 -c 8 -i 49 -a 8 -x {11.3 1.3 1 ------- null}
- -t 3.53874569315417 -s 11 -d 1 -p ack -e 40 -c 8 -i 49 -a 8 -x {11.3 1.3 1 ------- null}
h -t 3.53874569315417 -s 11 -d 1 -p ack -e 40 -c 8 -i 49 -a 8 -x {11.3 1.3 -1 ------- null}
r -t 3.54106569315417 -s 11 -d 1 -p ack -e 40 -c 8 -i 49 -a 8 -x {11.3 1.3 1 ------- null}
+ -t 3.6566103292804 -s 1 -d 11 -p tcp -e 1000 -c 4 -i 50 -a 4 -x {1.0 11.0 4 ------- null}
- -t 3.6566103292804 -s 1 -d 11 -p tcp -e 1000 -c 4 -i 50 -a 4 -x {1.0 11.0 4 ------- null}
h -t 3.6566103292804 -s 1 -d 11 -p tcp -e 1000 -c 4 -i 50 -a 4 -x {1.0 11.0 -1 ------- null}
r -t 3.6666103292804 -s 1 -d 11 -p tcp -e 1000 -c 4 -i 50 -a 4 -x {1.0 11.0 4 ------- null}
+ -t 3.6666103292804 -s 11 -d 1 -p ack -e 40 -c 4 -i 51 -a 4 -x {11.0 1.0 4 ------- null}
- -t 3.6666103292804 -s 11 -d 1 -p ack -e 40 -c 4 -i 51 -a 4 -x {11.0 1.0 4 ------- null}
h -t 3.6666103292804 -s 11 -d 1 -p ack -e 40 -c 4 -i 51 -a 4 -x {11.0 1.0 -1 ------- null}
r -t 3.6689303292804 -s 11 -d 1 -p ack -e 40 -c 4 -i 51 -a 4 -x {11.0 1.0 4 ------- null}
+ -t 3.88538214085041 -s 8 -d 18 -p tcp -e 1000 -c 3 -i 52 -a 3 -x {8.1 18.1 2 ------- null}
- -t 3.88538214085041 -s 8 -d 18 -p tcp -e 1000 -c 3 -i 52 -a 3 -x {8.1 18.1 2 ------- null}
h -t 3.88538214085041 -s 8 -d 18 -p tcp -e 1000 -c 3 -i 52 -a 3 -x {8.1 18.1 -1 ------- null}
+ -t 3.89267940165727 -s 1 -d 11 -p tcp -e 1000 -c 8 -i 53 -a 8 -x {1.3 11.3 2 ------- null}
- -t 3.89267940165727 -s 1 -d 11 -p tcp -e 1000 -c 8 -i 53 -a 8 -x {1.3 11.3 2 ------- null}
h -t 3.89267940165727 -s 1 -d 11 -p tcp -e 1000 -c 8 -i 53 -a 8 -x {1.3 11.3 -1 ------- null}
r -t 3.89538214085041 -s 8 -d 18 -p tcp -e 1000 -c 3 -i 52 -a 3 -x {8.1 18.1 2 ------- null}
+ -t 3.89538214085041 -s 18 -d 8 -p ack -e 40 -c 3 -i 54 -a 3 -x {18.1 8.1 2 ------- null}
- -t 3.89538214085041 -s 18 -d 8 -p ack -e 40 -c 3 -i 54 -a 3 -x {18.1 8.1 2 ------- null}
h -t 3.89538214085041 -s 18 -d 8 -p ack -e 40 -c 3 -i 54 -a 3 -x {18.1 8.1 -1 ------- null}
r -t 3.89770214085041 -s 18 -d 8 -p ack -e 40 -c 3 -i 54 -a 3 -x {18.1 8.1 2 ------- null}
r -t 3.90267940165727 -s 1 -d 11 -p tcp -e 1000 -c 8 -i 53 -a 8 -x {1.3 11.3 2 ------- null}
+ -t 3.90267940165727 -s 11 -d 1 -p ack -e 40 -c 8 -i 55 -a 8 -x {11.3 1.3 2 ------- null}
- -t 3.90267940165727 -s 11 -d 1 -p ack -e 40 -c 8 -i 55 -a 8 -x {11.3 1.3 2 ------- null}
h -t 3.90267940165727 -s 11 -d 1 -p ack -e 40 -c 8 -i 55 -a 8 -x {11.3 1.3 -1 ------- null}
r -t 3.90499940165727 -s 11 -d 1 -p ack -e 40 -c 8 -i 55 -a 8 -x {11.3 1.3 2 ------- null}
+ -t 3.90966796872888 -s 8 -d 18 -p tcp -e 1000 -c 3 -i 56 -a 3 -x {8.1 18.1 3 ------- null}
- -t 3.90966796872888 -s 8 -d 18 -p tcp -e 1000 -c 3 -i 56 -a 3 -x {8.1 18.1 3 ------- null}
h -t 3.90966796872888 -s 8 -d 18 -p tcp -e 1000 -c 3 -i 56 -a 3 -x {8.1 18.1 -1 ------- null}
r -t 3.91966796872888 -s 8 -d 18 -p tcp -e 1000 -c 3 -i 56 -a 3 -x {8.1 18.1 3 ------- null}
+ -t 3.91966796872888 -s 18 -d 8 -p ack -e 40 -c 3 -i 57 -a 3 -x {18.1 8.1 3 ------- null}
- -t 3.91966796872888 -s 18 -d 8 -p ack -e 40 -c 3 -i 57 -a 3 -x {18.1 8.1 3 ------- null}
h -t 3.91966796872888 -s 18 -d 8 -p ack -e 40 -c 3 -i 57 -a 3 -x {18.1 8.1 -1 ------- null}
r -t 3.92198796872888 -s 18 -d 8 -p ack -e 40 -c 3 -i 57 -a 3 -x {18.1 8.1 3 ------- null}
+ -t 3.9529402083616 -s 3 -d 13 -p tcp -e 1000 -c 2 -i 58 -a 2 -x {3.0 13.0 3 ------- null}
- -t 3.9529402083616 -s 3 -d 13 -p tcp -e 1000 -c 2 -i 58 -a 2 -x {3.0 13.0 3 ------- null}
h -t 3.9529402083616 -s 3 -d 13 -p tcp -e 1000 -c 2 -i 58 -a 2 -x {3.0 13.0 -1 ------- null}
r -t 3.9629402083616 -s 3 -d 13 -p tcp -e 1000 -c 2 -i 58 -a 2 -x {3.0 13.0 3 ------- null}
+ -t 3.9629402083616 -s 13 -d 3 -p ack -e 40 -c 2 -i 59 -a 2 -x {13.0 3.0 3 ------- null}
- -t 3.9629402083616 -s 13 -d 3 -p ack -e 40 -c 2 -i 59 -a 2 -x {13.0 3.0 3 ------- null}
h -t 3.9629402083616 -s 13 -d 3 -p ack -e 40 -c 2 -i 59 -a 2 -x {13.0 3.0 -1 ------- null}
r -t 3.9652602083616 -s 13 -d 3 -p ack -e 40 -c 2 -i 59 -a 2 -x {13.0 3.0 3 ------- null}
+ -t 4.00161234889957 -s 0 -d 10 -p tcp -e 1000 -c 1 -i 60 -a 1 -x {0.0 10.0 1 ------- null}
- -t 4.00161234889957 -s 0 -d 10 -p tcp -e 1000 -c 1 -i 60 -a 1 -x {0.0 10.0 1 ------- null}
h -t 4.00161234889957 -s 0 -d 10 -p tcp -e 1000 -c 1 -i 60 -a 1 -x {0.0 10.0 -1 ------- null}
r -t 4.01161234889957 -s 0 -d 10 -p tcp -e 1000 -c 1 -i 60 -a 1 -x {0.0 10.0 1 ------- null}
+ -t 4.01161234889957 -s 10 -d 0 -p ack -e 40 -c 1 -i 61 -a 1 -x {10.0 0.0 1 ------- null}
- -t 4.01161234889957 -s 10 -d 0 -p ack -e 40 -c 1 -i 61 -a 1 -x {10.0 0.0 1 ------- null}
h -t 4.01161234889957 -s 10 -d 0 -p ack -e 40 -c 1 -i 61 -a 1 -x {10.0 0.0 -1 ------- null}
r -t 4.01393234889957 -s 10 -d 0 -p ack -e 40 -c 1 -i 61 -a 1 -x {10.0 0.0 1 ------- null}
+ -t 4.14651618490883 -s 0 -d 10 -p tcp -e 1000 -c 1 -i 62 -a 1 -x {0.0 10.0 2 ------- null}
- -t 4.14651618490883 -s 0 -d 10 -p tcp -e 1000 -c 1 -i 62 -a 1 -x {0.0 10.0 2 ------- null}
h -t 4.14651618490883 -s 0 -d 10 -p tcp -e 1000 -c 1 -i 62 -a 1 -x {0.0 10.0 -1 ------- null}
r -t 4.15651618490883 -s 0 -d 10 -p tcp -e 1000 -c 1 -i 62 -a 1 -x {0.0 10.0 2 ------- null}
+ -t 4.15651618490883 -s 10 -d 0 -p ack -e 40 -c 1 -i 63 -a 1 -x {10.0 0.0 2 ------- null}
- -t 4.15651618490883 -s 10 -d 0 -p ack -e 40 -c 1 -i 63 -a 1 -x {10.0 0.0 2 ------- null}
h -t 4.15651618490883 -s 10 -d 0 -p ack -e 40 -c 1 -i 63 -a 1 -x {10.0 0.0 -1 ------- null}
r -t 4.15883618490883 -s 10 -d 0 -p ack -e 40 -c 1 -i 63 -a 1 -x {10.0 0.0 2 ------- null}
+ -t 4.33141437016829 -s 9 -d 19 -p tcp -e 1000 -c 6 -i 64 -a 6 -x {9.0 19.0 1 ------- null}
- -t 4.33141437016829 -s 9 -d 19 -p tcp -e 1000 -c 6 -i 64 -a 6 -x {9.0 19.0 1 ------- null}
h -t 4.33141437016829 -s 9 -d 19 -p tcp -e 1000 -c 6 -i 64 -a 6 -x {9.0 19.0 -1 ------- null}
r -t 4.34141437016829 -s 9 -d 19 -p tcp -e 1000 -c 6 -i 64 -a 6 -x {9.0 19.0 1 ------- null}
+ -t 4.34141437016829 -s 19 -d 9 -p ack -e 40 -c 6 -i 65 -a 6 -x {19.0 9.0 1 ------- null}
- -t 4.34141437016829 -s 19 -d 9 -p ack -e 40 -c 6 -i 65 -a 6 -x {19.0 9.0 1 ------- null}
h -t 4.34141437016829 -s 19 -d 9 -p ack -e 40 -c 6 -i 65 -a 6 -x {19.0 9.0 -1 ------- null}
r -t 4.34373437016829 -s 19 -d 9 -p ack -e 40 -c 6 -i 65 -a 6 -x {19.0 9.0 1 ------- null}
+ -t 4.61951033454213 -s 8 -d 18 -p tcp -e 1000 -c 3 -i 66 -a 3 -x {8.1 18.1 4 ------- null}
- -t 4.61951033454213 -s 8 -d 18 -p tcp -e 1000 -c 3 -i 66 -a 3 -x {8.1 18.1 4 ------- null}
h -t 4.61951033454213 -s 8 -d 18 -p tcp -e 1000 -c 3 -i 66 -a 3 -x {8.1 18.1 -1 ------- null}
r -t 4.62951033454213 -s 8 -d 18 -p tcp -e 1000 -c 3 -i 66 -a 3 -x {8.1 18.1 4 ------- null}
+ -t 4.62951033454213 -s 18 -d 8 -p ack -e 40 -c 3 -i 67 -a 3 -x {18.1 8.1 4 ------- null}
- -t 4.62951033454213 -s 18 -d 8 -p ack -e 40 -c 3 -i 67 -a 3 -x {18.1 8.1 4 ------- null}
h -t 4.62951033454213 -s 18 -d 8 -p ack -e 40 -c 3 -i 67 -a 3 -x {18.1 8.1 -1 ------- null}
r -t 4.63183033454213 -s 18 -d 8 -p ack -e 40 -c 3 -i 67 -a 3 -x {18.1 8.1 4 ------- null}
+ -t 4.63917517662297 -s 9 -d 19 -p tcp -e 1000 -c 6 -i 68 -a 6 -x {9.0 19.0 2 ------- null}
- -t 4.63917517662297 -s 9 -d 19 -p tcp -e 1000 -c 6 -i 68 -a 6 -x {9.0 19.0 2 ------- null}
h -t 4.63917517662297 -s 9 -d 19 -p tcp -e 1000 -c 6 -i 68 -a 6 -x {9.0 19.0 -1 ------- null}
r -t 4.64917517662297 -s 9 -d 19 -p tcp -e 1000 -c 6 -i 68 -a 6 -x {9.0 19.0 2 ------- null}
+ -t 4.64917517662297 -s 19 -d 9 -p ack -e 40 -c 6 -i 69 -a 6 -x {19.0 9.0 2 ------- null}
- -t 4.64917517662297 -s 19 -d 9 -p ack -e 40 -c 6 -i 69 -a 6 -x {19.0 9.0 2 ------- null}
h -t 4.64917517662297 -s 19 -d 9 -p ack -e 40 -c 6 -i 69 -a 6 -x {19.0 9.0 -1 ------- null}
r -t 4.65149517662297 -s 19 -d 9 -p ack -e 40 -c 6 -i 69 -a 6 -x {19.0 9.0 2 ------- null}
+ -t 4.77594039183586 -s 0 -d 10 -p tcp -e 1000 -c 1 -i 70 -a 1 -x {0.0 10.0 3 ------- null}
- -t 4.77594039183586 -s 0 -d 10 -p tcp -e 1000 -c 1 -i 70 -a 1 -x {0.0 10.0 3 ------- null}
h -t 4.77594039183586 -s 0 -d 10 -p tcp -e 1000 -c 1 -i 70 -a 1 -x {0.0 10.0 -1 ------- null}
r -t 4.78594039183586 -s 0 -d 10 -p tcp -e 1000 -c 1 -i 70 -a 1 -x {0.0 10.0 3 ------- null}
+ -t 4.78594039183586 -s 10 -d 0 -p ack -e 40 -c 1 -i 71 -a 1 -x {10.0 0.0 3 ------- null}
- -t 4.78594039183586 -s 10 -d 0 -p ack -e 40 -c 1 -i 71 -a 1 -x {10.0 0.0 3 ------- null}
h -t 4.78594039183586 -s 10 -d 0 -p ack -e 40 -c 1 -i 71 -a 1 -x {10.0 0.0 -1 ------- null}
r -t 4.78826039183586 -s 10 -d 0 -p ack -e 40 -c 1 -i 71 -a 1 -x {10.0 0.0 3 ------- null}
+ -t 4.93362651460262 -s 1 -d 11 -p tcp -e 1000 -c 5 -i 72 -a 5 -x {1.1 11.1 4 ------- null}
- -t 4.93362651460262 -s 1 -d 11 -p tcp -e 1000 -c 5 -i 72 -a 5 -x {1.1 11.1 4 ------- null}
h -t 4.93362651460262 -s 1 -d 11 -p tcp -e 1000 -c 5 -i 72 -a 5 -x {1.1 11.1 -1 ------- null}
r -t 4.94362651460262 -s 1 -d 11 -p tcp -e 1000 -c 5 -i 72 -a 5 -x {1.1 11.1 4 ------- null}
+ -t 4.94362651460262 -s 11 -d 1 -p ack -e 40 -c 5 -i 73 -a 5 -x {11.1 1.1 4 ------- null}
- -t 4.94362651460262 -s 11 -d 1 -p ack -e 40 -c 5 -i 73 -a 5 -x {11.1 1.1 4 ------- null}
h -t 4.94362651460262 -s 11 -d 1 -p ack -e 40 -c 5 -i 73 -a 5 -x {11.1 1.1 -1 ------- null}
r -t 4.94594651460262 -s 11 -d 1 -p ack -e 40 -c 5 -i 73 -a 5 -x {11.1 1.1 4 ------- null}
+ -t 4.98124383532286 -s 0 -d 10 -p tcp -e 1000 -c 1 -i 74 -a 1 -x {0.0 10.0 4 ------- null}
- -t 4.98124383532286 -s 0 -d 10 -p tcp -e 1000 -c 1 -i 74 -a 1 -x {0.0 10.0 4 ------- null}
h -t 4.98124383532286 -s 0 -d 10 -p tcp -e 1000 -c 1 -i 74 -a 1 -x {0.0 10.0 -1 ------- null}
+ -t 4.98826039183586 -s 0 -d 10 -p tcp -e 1000 -c 1 -i 75 -a 1 -x {0.0 10.0 4 ------- null}
- -t 4.98924383532286 -s 0 -d 10 -p tcp -e 1000 -c 1 -i 75 -a 1 -x {0.0 10.0 4 ------- null}