+ 1.099881 1 11 tcp 1000 ------- 4 1.0 11.0 0 0
- 1.099881 1 11 tcp 1000 ------- 4 1.0 11.0 0 0
r 1.109881 1 11 tcp 1000 ------- 4 1.0 11.0 0 0
+ 1.109881 11 1 ack 40 ------- 4 11.0 1.0 0 1
- 1.109881 11 1 ack 40 ------- 4 11.0 1.0 0 1
r 1.112201 11 1 ack 40 ------- 4 11.0 1.0 0 1
+ 1.11941 3 13 tcp 1000 ------- 9 3.1 13.1 0 2
- 1.11941 3 13 tcp 1000 ------- 9 3.1 13.1 0 2
r 1.12941 3 13 tcp 1000 ------- 9 3.1 13.1 0 2
+ 1.12941 13 3 ack 40 ------- 9 13.1 3.1 0 3
- 1.12941 13 3 ack 40 ------- 9 13.1 3.1 0 3
r 1.13173 13 3 ack 40 ------- 9 13.1 3.1 0 3
+ 1.155113 1 11 tcp 1000 ------- 4 1.0 11.0 1 4
- 1.155113 1 11 tcp 1000 ------- 4 1.0 11.0 1 4
+ 1.161218 0 10 tcp 1000 ------- 1 0.0 10.0 0 5
- 1.161218 0 10 tcp 1000 ------- 1 0.0 10.0 0 5
r 1.165113 1 11 tcp 1000 ------- 4 1.0 11.0 1 4
+ 1.165113 11 1 ack 40 ------- 4 11.0 1.0 1 6
- 1.165113 11 1 ack 40 ------- 4 11.0 1.0 1 6
r 1.167433 11 1 ack 40 ------- 4 11.0 1.0 1 6
r 1.171218 0 10 tcp 1000 ------- 1 0.0 10.0 0 5
+ 1.171218 10 0 ack 40 ------- 1 10.0 0.0 0 7
- 1.171218 10 0 ack 40 ------- 1 10.0 0.0 0 7
r 1.173538 10 0 ack 40 ------- 1 10.0 0.0 0 7
+ 1.234431 3 13 tcp 1000 ------- 9 3.1 13.1 1 8
- 1.234431 3 13 tcp 1000 ------- 9 3.1 13.1 1 8
r 1.244431 3 13 tcp 1000 ------- 9 3.1 13.1 1 8
+ 1.244431 13 3 ack 40 ------- 9 13.1 3.1 1 9
- 1.244431 13 3 ack 40 ------- 9 13.1 3.1 1 9
r 1.246751 13 3 ack 40 ------- 9 13.1 3.1 1 9
+ 1.271504 8 18 tcp 1000 ------- 3 8.1 18.1 0 10
- 1.271504 8 18 tcp 1000 ------- 3 8.1 18.1 0 10
r 1.281504 8 18 tcp 1000 ------- 3 8.1 18.1 0 10
+ 1.281504 18 8 ack 40 ------- 3 18.1 8.1 0 11
- 1.281504 18 8 ack 40 ------- 3 18.1 8.1 0 11
r 1.283824 18 8 ack 40 ------- 3 18.1 8.1 0 11
+ 1.389569 3 13 tcp 1000 ------- 2 3.0 13.0 0 12
- 1.389569 3 13 tcp 1000 ------- 2 3.0 13.0 0 12
r 1.399569 3 13 tcp 1000 ------- 2 3.0 13.0 0 12
+ 1.399569 13 3 ack 40 ------- 2 13.0 3.0 0 13
- 1.399569 13 3 ack 40 ------- 2 13.0 3.0 0 13
r 1.401889 13 3 ack 40 ------- 2 13.0 3.0 0 13
+ 1.790652 8 18 tcp 1000 ------- 3 8.1 18.1 1 14
- 1.790652 8 18 tcp 1000 ------- 3 8.1 18.1 1 14
r 1.800652 8 18 tcp 1000 ------- 3 8.1 18.1 1 14
+ 1.800652 18 8 ack 40 ------- 3 18.1 8.1 1 15
- 1.800652 18 8 ack 40 ------- 3 18.1 8.1 1 15
r 1.802972 18 8 ack 40 ------- 3 18.1 8.1 1 15
+ 1.902587 1 11 tcp 1000 ------- 5 1.1 11.1 0 16
- 1.902587 1 11 tcp 1000 ------- 5 1.1 11.1 0 16
+ 1.905827 1 11 tcp 1000 ------- 7 1.2 11.2 0 17
- 1.910587 1 11 tcp 1000 ------- 7 1.2 11.2 0 17
r 1.912587 1 11 tcp 1000 ------- 5 1.1 11.1 0 16
+ 1.912587 11 1 ack 40 ------- 5 11.1 1.1 0 18
- 1.912587 11 1 ack 40 ------- 5 11.1 1.1 0 18
r 1.914907 11 1 ack 40 ------- 5 11.1 1.1 0 18
r 1.920587 1 11 tcp 1000 ------- 7 1.2 11.2 0 17
+ 1.920587 11 1 ack 40 ------- 7 11.2 1.2 0 19
- 1.920587 11 1 ack 40 ------- 7 11.2 1.2 0 19
r 1.922907 11 1 ack 40 ------- 7 11.2 1.2 0 19
+ 2.305121 1 11 tcp 1000 ------- 5 1.1 11.1 1 20
- 2.305121 1 11 tcp 1000 ------- 5 1.1 11.1 1 20
r 2.315121 1 11 tcp 1000 ------- 5 1.1 11.1 1 20
+ 2.315121 11 1 ack 40 ------- 5 11.1 1.1 1 21
- 2.315121 11 1 ack 40 ------- 5 11.1 1.1 1 21
r 2.317441 11 1 ack 40 ------- 5 11.1 1.1 1 21
+ 2.422023 8 18 tcp 1000 ------- 0 8.0 18.0 0 22
- 2.422023 8 18 tcp 1000 ------- 0 8.0 18.0 0 22
r 2.432023 8 18 tcp 1000 ------- 0 8.0 18.0 0 22
+ 2.432023 18 8 ack 40 ------- 0 18.0 8.0 0 23
- 2.432023 18 8 ack 40 ------- 0 18.0 8.0 0 23
r 2.434343 18 8 ack 40 ------- 0 18.0 8.0 0 23
+ 2.481217 3 13 tcp 1000 ------- 2 3.0 13.0 1 24
- 2.481217 3 13 tcp 1000 ------- 2 3.0 13.0 1 24
r 2.491217 3 13 tcp 1000 ------- 2 3.0 13.0 1 24
+ 2.491217 13 3 ack 40 ------- 2 13.0 3.0 1 25
- 2.491217 13 3 ack 40 ------- 2 13.0 3.0 1 25
r 2.493537 13 3 ack 40 ------- 2 13.0 3.0 1 25
+ 2.612858 3 13 tcp 1000 ------- 2 3.0 13.0 2 26
- 2.612858 3 13 tcp 1000 ------- 2 3.0 13.0 2 26
r 2.622858 3 13 tcp 1000 ------- 2 3.0 13.0 2 26
+ 2.622858 13 3 ack 40 ------- 2 13.0 3.0 2 27
- 2.622858 13 3 ack 40 ------- 2 13.0 3.0 2 27
r 2.625178 13 3 ack 40 ------- 2 13.0 3.0 2 27
+ 2.663693 1 11 tcp 1000 ------- 5 1.1 11.1 2 28
- 2.663693 1 11 tcp 1000 ------- 5 1.1 11.1 2 28
r 2.673693 1 11 tcp 1000 ------- 5 1.1 11.1 2 28
+ 2.673693 11 1 ack 40 ------- 5 11.1 1.1 2 29
- 2.673693 11 1 ack 40 ------- 5 11.1 1.1 2 29
+ 2.674695 1 11 tcp 1000 ------- 8 1.3 11.3 0 30
- 2.674695 1 11 tcp 1000 ------- 8 1.3 11.3 0 30
r 2.676013 11 1 ack 40 ------- 5 11.1 1.1 2 29
r 2.684695 1 11 tcp 1000 ------- 8 1.3 11.3 0 30
+ 2.684695 11 1 ack 40 ------- 8 11.3 1.3 0 31
- 2.684695 11 1 ack 40 ------- 8 11.3 1.3 0 31
r 2.687015 11 1 ack 40 ------- 8 11.3 1.3 0 31
+ 3.029319 8 18 tcp 1000 ------- 0 8.0 18.0 1 32
- 3.029319 8 18 tcp 1000 ------- 0 8.0 18.0 1 32
+ 3.034343 8 18 tcp 1000 ------- 0 8.0 18.0 1 33
- 3.037319 8 18 tcp 1000 ------- 0 8.0 18.0 1 33
r 3.039319 8 18 tcp 1000 ------- 0 8.0 18.0 1 32
+ 3.039319 18 8 ack 40 ------- 0 18.0 8.0 1 34
- 3.039319 18 8 ack 40 ------- 0 18.0 8.0 1 34
r 3.041639 18 8 ack 40 ------- 0 18.0 8.0 1 34
r 3.047319 8 18 tcp 1000 ------- 0 8.0 18.0 1 33
+ 3.047319 18 8 ack 40 ------- 0 18.0 8.0 1 35
- 3.047319 18 8 ack 40 ------- 0 18.0 8.0 1 35
r 3.049639 18 8 ack 40 ------- 0 18.0 8.0 1 35
+ 3.214588 9 19 tcp 1000 ------- 6 9.0 19.0 0 36
- 3.214588 9 19 tcp 1000 ------- 6 9.0 19.0 0 36
r 3.224588 9 19 tcp 1000 ------- 6 9.0 19.0 0 36
+ 3.224588 19 9 ack 40 ------- 6 19.0 9.0 0 37
- 3.224588 19 9 ack 40 ------- 6 19.0 9.0 0 37
r 3.226908 19 9 ack 40 ------- 6 19.0 9.0 0 37
+ 3.252769 1 11 tcp 1000 ------- 5 1.1 11.1 3 38
- 3.252769 1 11 tcp 1000 ------- 5 1.1 11.1 3 38
r 3.262769 1 11 tcp 1000 ------- 5 1.1 11.1 3 38
+ 3.262769 11 1 ack 40 ------- 5 11.1 1.1 3 39
- 3.262769 11 1 ack 40 ------- 5 11.1 1.1 3 39
+ 3.26453 1 11 tcp 1000 ------- 7 1.2 11.2 1 40
- 3.26453 1 11 tcp 1000 ------- 7 1.2 11.2 1 40
r 3.265089 11 1 ack 40 ------- 5 11.1 1.1 3 39
r 3.27453 1 11 tcp 1000 ------- 7 1.2 11.2 1 40
+ 3.27453 11 1 ack 40 ------- 7 11.2 1.2 1 41
- 3.27453 11 1 ack 40 ------- 7 11.2 1.2 1 41
r 3.27685 11 1 ack 40 ------- 7 11.2 1.2 1 41
+ 3.34409 1 11 tcp 1000 ------- 4 1.0 11.0 2 42
- 3.34409 1 11 tcp 1000 ------- 4 1.0 11.0 2 42
r 3.35409 1 11 tcp 1000 ------- 4 1.0 11.0 2 42
+ 3.35409 11 1 ack 40 ------- 4 11.0 1.0 2 43
- 3.35409 11 1 ack 40 ------- 4 11.0 1.0 2 43
r 3.35641 11 1 ack 40 ------- 4 11.0 1.0 2 43
+ 3.39874 1 11 tcp 1000 ------- 4 1.0 11.0 3 44
- 3.39874 1 11 tcp 1000 ------- 4 1.0 11.0 3 44
r 3.40874 1 11 tcp 1000 ------- 4 1.0 11.0 3 44
+ 3.40874 11 1 ack 40 ------- 4 11.0 1.0 3 45
- 3.40874 11 1 ack 40 ------- 4 11.0 1.0 3 45
r 3.41106 11 1 ack 40 ------- 4 11.0 1.0 3 45
+ 3.506618 1 11 tcp 1000 ------- 7 1.2 11.2 2 46
- 3.506618 1 11 tcp 1000 ------- 7 1.2 11.2 2 46
r 3.516618 1 11 tcp 1000 ------- 7 1.2 11.2 2 46
+ 3.516618 11 1 ack 40 ------- 7 11.2 1.2 2 47
- 3.516618 11 1 ack 40 ------- 7 11.2 1.2 2 47
r 3.518938 11 1 ack 40 ------- 7 11.2 1.2 2 47
+ 3.528746 1 11 tcp 1000 ------- 8 1.3 11.3 1 48
- 3.528746 1 11 tcp 1000 ------- 8 1.3 11.3 1 48
r 3.538746 1 11 tcp 1000 ------- 8 1.3 11.3 1 48
+ 3.538746 11 1 ack 40 ------- 8 11.3 1.3 1 49
- 3.538746 11 1 ack 40 ------- 8 11.3 1.3 1 49
r 3.541066 11 1 ack 40 ------- 8 11.3 1.3 1 49
+ 3.65661 1 11 tcp 1000 ------- 4 1.0 11.0 4 50
- 3.65661 1 11 tcp 1000 ------- 4 1.0 11.0 4 50
r 3.66661 1 11 tcp 1000 ------- 4 1.0 11.0 4 50
+ 3.66661 11 1 ack 40 ------- 4 11.0 1.0 4 51
- 3.66661 11 1 ack 40 ------- 4 11.0 1.0 4 51
r 3.66893 11 1 ack 40 ------- 4 11.0 1.0 4 51
+ 3.885382 8 18 tcp 1000 ------- 3 8.1 18.1 2 52
- 3.885382 8 18 tcp 1000 ------- 3 8.1 18.1 2 52
+ 3.892679 1 11 tcp 1000 ------- 8 1.3 11.3 2 53
- 3.892679 1 11 tcp 1000 ------- 8 1.3 11.3 2 53
r 3.895382 8 18 tcp 1000 ------- 3 8.1 18.1 2 52
+ 3.895382 18 8 ack 40 ------- 3 18.1 8.1 2 54
- 3.895382 18 8 ack 40 ------- 3 18.1 8.1 2 54
r 3.897702 18 8 ack 40 ------- 3 18.1 8.1 2 54
r 3.902679 1 11 tcp 1000 ------- 8 1.3 11.3 2 53
+ 3.902679 11 1 ack 40 ------- 8 11.3 1.3 2 55
- 3.902679 11 1 ack 40 ------- 8 11.3 1.3 2 55
r 3.904999 11 1 ack 40 ------- 8 11.3 1.3 2 55
+ 3.909668 8 18 tcp 1000 ------- 3 8.1 18.1 3 56
- 3.909668 8 18 tcp 1000 ------- 3 8.1 18.1 3 56
r 3.919668 8 18 tcp 1000 ------- 3 8.1 18.1 3 56
+ 3.919668 18 8 ack 40 ------- 3 18.1 8.1 3 57
- 3.919668 18 8 ack 40 ------- 3 18.1 8.1 3 57
r 3.921988 18 8 ack 40 ------- 3 18.1 8.1 3 57
+ 3.95294 3 13 tcp 1000 ------- 2 3.0 13.0 3 58
- 3.95294 3 13 tcp 1000 ------- 2 3.0 13.0 3 58
r 3.96294 3 13 tcp 1000 ------- 2 3.0 13.0 3 58
+ 3.96294 13 3 ack 40 ------- 2 13.0 3.0 3 59
- 3.96294 13 3 ack 40 ------- 2 13.0 3.0 3 59
r 3.96526 13 3 ack 40 ------- 2 13.0 3.0 3 59
+ 4.001612 0 10 tcp 1000 ------- 1 0.0 10.0 1 60
- 4.001612 0 10 tcp 1000 ------- 1 0.0 10.0 1 60
r 4.011612 0 10 tcp 1000 ------- 1 0.0 10.0 1 60
+ 4.011612 10 0 ack 40 ------- 1 10.0 0.0 1 61
- 4.011612 10 0 ack 40 ------- 1 10.0 0.0 1 61
r 4.013932 10 0 ack 40 ------- 1 10.0 0.0 1 61
+ 4.146516 0 10 tcp 1000 ------- 1 0.0 10.0 2 62
- 4.146516 0 10 tcp 1000 ------- 1 0.0 10.0 2 62
r 4.156516 0 10 tcp 1000 ------- 1 0.0 10.0 2 62
+ 4.156516 10 0 ack 40 ------- 1 10.0 0.0 2 63
- 4.156516 10 0 ack 40 ------- 1 10.0 0.0 2 63
r 4.158836 10 0 ack 40 ------- 1 10.0 0.0 2 63
+ 4.331414 9 19 tcp 1000 ------- 6 9.0 19.0 1 64
- 4.331414 9 19 tcp 1000 ------- 6 9.0 19.0 1 64
r 4.341414 9 19 tcp 1000 ------- 6 9.0 19.0 1 64
+ 4.341414 19 9 ack 40 ------- 6 19.0 9.0 1 65
- 4.341414 19 9 ack 40 ------- 6 19.0 9.0 1 65
r 4.343734 19 9 ack 40 ------- 6 19.0 9.0 1 65
+ 4.61951 8 18 tcp 1000 ------- 3 8.1 18.1 4 66
- 4.61951 8 18 tcp 1000 ------- 3 8.1 18.1 4 66
r 4.62951 8 18 tcp 1000 ------- 3 8.1 18.1 4 66
+ 4.62951 18 8 ack 40 ------- 3 18.1 8.1 4 67
- 4.62951 18 8 ack 40 ------- 3 18.1 8.1 4 67
r 4.63183 18 8 ack 40 ------- 3 18.1 8.1 4 67
+ 4.639175 9 19 tcp 1000 ------- 6 9.0 19.0 2 68
- 4.639175 9 19 tcp 1000 ------- 6 9.0 19.0 2 68
r 4.649175 9 19 tcp 1000 ------- 6 9.0 19.0 2 68
+ 4.649175 19 9 ack 40 ------- 6 19.0 9.0 2 69
- 4.649175 19 9 ack 40 ------- 6 19.0 9.0 2 69
r 4.651495 19 9 ack 40 ------- 6 19.0 9.0 2 69
+ 4.77594 0 10 tcp 1000 ------- 1 0.0 10.0 3 70
- 4.77594 0 10 tcp 1000 ------- 1 0.0 10.0 3 70
r 4.78594 0 10 tcp 1000 ------- 1 0.0 10.0 3 70
+ 4.78594 10 0 ack 40 ------- 1 10.0 0.0 3 71
- 4.78594 10 0 ack 40 ------- 1 10.0 0.0 3 71
r 4.78826 10 0 ack 40 ------- 1 10.0 0.0 3 71
+ 4.933627 1 11 tcp 1000 ------- 5 1.1 11.1 4 72
- 4.933627 1 11 tcp 1000 ------- 5 1.1 11.1 4 72
r 4.943627 1 11 tcp 1000 ------- 5 1.1 11.1 4 72
+ 4.943627 11 1 ack 40 ------- 5 11.1 1.1 4 73
- 4.943627 11 1 ack 40 ------- 5 11.1 1.1 4 73
r 4.945947 11 1 ack 40 ------- 5 11.1 1.1 4 73
+ 4.981244 0 10 tcp 1000 ------- 1 0.0 10.0 4 74
- 4.981244 0 10 tcp 1000 ------- 1 0.0 10.0 4 74
+ 4.98826 0 10 tcp 1000 ------- 1 0.0 10.0 4 75
- 4.989244 0 10 tcp 1000 ------- 1 0.0 10.0 4 75
r 4.991244 0 10 tcp 1000 ------- 1 0.0 10.0 4 74
+ 4.991244 10 0 ack 40 ------- 1 10.0 0.0 4 76
- 4.991244 10 0 ack 40 ------- 1 10.0 0.0 4 76
r 4.993564 10 0 ack 40 ------- 1 10.0 0.0 4 76
r 4.999244 0 10 tcp 1000 ------- 1 0.0 10.0 4 75
+ 4.999244 10 0 ack 40 ------- 1 10.0 0.0 4 77
- 4.999244 10 0 ack 40 ------- 1 10.0 0.0 4 77
r 5.001564 10 0 ack 40 ------- 1 10.0 0.0 4 77
+ 5.035828 1 11 tcp 1000 ------- 5 1.1 11.1 5 78
- 5.035828 1 11 tcp 1000 ------- 5 1.1 11.1 5 78
r 5.045828 1 11 tcp 1000 ------- 5 1.1 11.1 5 78
+ 5.045828 11 1 ack 40 ------- 5 11.1 1.1 5 79
- 5.045828 11 1 ack 40 ------- 5 11.1 1.1 5 79
r 5.048148 11 1 ack 40 ------- 5 11.1 1.1 5 79
+ 5.082941 1 11 tcp 1000 ------- 7 1.2 11.2 3 80
- 5.082941 1 11 tcp 1000 ------- 7 1.2 11.2 3 80
r 5.092941 1 11 tcp 1000 ------- 7 1.2 11.2 3 80
+ 5.092941 11 1 ack 40 ------- 7 11.2 1.2 3 81
- 5.092941 11 1 ack 40 ------- 7 11.2 1.2 3 81
r 5.095261 11 1 ack 40 ------- 7 11.2 1.2 3 81
+ 5.169764 1 11 tcp 1000 ------- 5 1.1 11.1 6 82
- 5.169764 1 11 tcp 1000 ------- 5 1.1 11.1 6 82
r 5.179764 1 11 tcp 1000 ------- 5 1.1 11.1 6 82
+ 5.179764 11 1 ack 40 ------- 5 11.1 1.1 6 83
- 5.179764 11 1 ack 40 ------- 5 11.1 1.1 6 83
r 5.182084 11 1 ack 40 ------- 5 11.1 1.1 6 83
+ 5.298641 0 10 tcp 1000 ------- 1 0.0 10.0 5 84
- 5.298641 0 10 tcp 1000 ------- 1 0.0 10.0 5 84
r 5.308641 0 10 tcp 1000 ------- 1 0.0 10.0 5 84
+ 5.308641 10 0 ack 40 ------- 1 10.0 0.0 5 85
- 5.308641 10 0 ack 40 ------- 1 10.0 0.0 5 85
r 5.310961 10 0 ack 40 ------- 1 10.0 0.0 5 85
+ 5.378501 1 11 tcp 1000 ------- 4 1.0 11.0 5 86
- 5.378501 1 11 tcp 1000 ------- 4 1.0 11.0 5 86
r 5.388501 1 11 tcp 1000 ------- 4 1.0 11.0 5 86
+ 5.388501 11 1 ack 40 ------- 4 11.0 1.0 5 87
- 5.388501 11 1 ack 40 ------- 4 11.0 1.0 5 87
r 5.390821 11 1 ack 40 ------- 4 11.0 1.0 5 87
+ 5.476506 1 11 tcp 1000 ------- 5 1.1 11.1 7 88
- 5.476506 1 11 tcp 1000 ------- 5 1.1 11.1 7 88
+ 5.48411 8 18 tcp 1000 ------- 3 8.1 18.1 5 89
- 5.48411 8 18 tcp 1000 ------- 3 8.1 18.1 5 89
r 5.486506 1 11 tcp 1000 ------- 5 1.1 11.1 7 88
+ 5.486506 11 1 ack 40 ------- 5 11.1 1.1 7 90
- 5.486506 11 1 ack 40 ------- 5 11.1 1.1 7 90
r 5.488826 11 1 ack 40 ------- 5 11.1 1.1 7 90
r 5.49411 8 18 tcp 1000 ------- 3 8.1 18.1 5 89
+ 5.49411 18 8 ack 40 ------- 3 18.1 8.1 5 91
- 5.49411 18 8 ack 40 ------- 3 18.1 8.1 5 91
r 5.49643 18 8 ack 40 ------- 3 18.1 8.1 5 91
+ 5.519273 0 10 tcp 1000 ------- 1 0.0 10.0 6 92
- 5.519273 0 10 tcp 1000 ------- 1 0.0 10.0 6 92
r 5.529273 0 10 tcp 1000 ------- 1 0.0 10.0 6 92
+ 5.529273 10 0 ack 40 ------- 1 10.0 0.0 6 93
- 5.529273 10 0 ack 40 ------- 1 10.0 0.0 6 93
r 5.531593 10 0 ack 40 ------- 1 10.0 0.0 6 93
+ 5.617184 1 11 tcp 1000 ------- 7 1.2 11.2 4 94
- 5.617184 1 11 tcp 1000 ------- 7 1.2 11.2 4 94
r 5.627184 1 11 tcp 1000 ------- 7 1.2 11.2 4 94
+ 5.627184 11 1 ack 40 ------- 7 11.2 1.2 4 95
- 5.627184 11 1 ack 40 ------- 7 11.2 1.2 4 95
r 5.629504 11 1 ack 40 ------- 7 11.2 1.2 4 95
+ 5.687963 8 18 tcp 1000 ------- 3 8.1 18.1 6 96
- 5.687963 8 18 tcp 1000 ------- 3 8.1 18.1 6 96
+ 5.69643 8 18 tcp 1000 ------- 3 8.1 18.1 6 97
- 5.69643 8 18 tcp 1000 ------- 3 8.1 18.1 6 97
r 5.697963 8 18 tcp 1000 ------- 3 8.1 18.1 6 96
+ 5.697963 18 8 ack 40 ------- 3 18.1 8.1 6 98
- 5.697963 18 8 ack 40 ------- 3 18.1 8.1 6 98
r 5.700283 18 8 ack 40 ------- 3 18.1 8.1 6 98
r 5.70643 8 18 tcp 1000 ------- 3 8.1 18.1 6 97
+ 5.70643 18 8 ack 40 ------- 3 18.1 8.1 6 99
- 5.70643 18 8 ack 40 ------- 3 18.1 8.1 6 99
r 5.70875 18 8 ack 40 ------- 3 18.1 8.1 6 99
+ 5.761868 3 13 tcp 1000 ------- 9 3.1 13.1 2 100
- 5.761868 3 13 tcp 1000 ------- 9 3.1 13.1 2 100
+ 5.762906 0 10 tcp 1000 ------- 1 0.0 10.0 7 101
- 5.762906 0 10 tcp 1000 ------- 1 0.0 10.0 7 101
r 5.771868 3 13 tcp 1000 ------- 9 3.1 13.1 2 100
+ 5.771868 13 3 ack 40 ------- 9 13.1 3.1 2 102
- 5.771868 13 3 ack 40 ------- 9 13.1 3.1 2 102
r 5.772906 0 10 tcp 1000 ------- 1 0.0 10.0 7 101
+ 5.772906 10 0 ack 40 ------- 1 10.0 0.0 7 103
- 5.772906 10 0 ack 40 ------- 1 10.0 0.0 7 103
r 5.774188 13 3 ack 40 ------- 9 13.1 3.1 2 102
r 5.775226 10 0 ack 40 ------- 1 10.0 0.0 7 103
+ 6.027372 1 11 tcp 1000 ------- 7 1.2 11.2 5 104
- 6.027372 1 11 tcp 1000 ------- 7 1.2 11.2 5 104
r 6.037372 1 11 tcp 1000 ------- 7 1.2 11.2 5 104
+ 6.037372 11 1 ack 40 ------- 7 11.2 1.2 5 105
- 6.037372 11 1 ack 40 ------- 7 11.2 1.2 5 105
r 6.039692 11 1 ack 40 ------- 7 11.2 1.2 5 105
+ 6.05917 1 11 tcp 1000 ------- 5 1.1 11.1 8 106
- 6.05917 1 11 tcp 1000 ------- 5 1.1 11.1 8 106
r 6.06917 1 11 tcp 1000 ------- 5 1.1 11.1 8 106
+ 6.06917 11 1 ack 40 ------- 5 11.1 1.1 8 107
- 6.06917 11 1 ack 40 ------- 5 11.1 1.1 8 107
r 6.07149 11 1 ack 40 ------- 5 11.1 1.1 8 107
+ 6.285661 1 11 tcp 1000 ------- 8 1.3 11.3 3 108
- 6.285661 1 11 tcp 1000 ------- 8 1.3 11.3 3 108
r 6.295661 1 11 tcp 1000 ------- 8 1.3 11.3 3 108
+ 6.295661 11 1 ack 40 ------- 8 11.3 1.3 3 109
- 6.295661 11 1 ack 40 ------- 8 11.3 1.3 3 109
r 6.297981 11 1 ack 40 ------- 8 11.3 1.3 3 109
+ 6.367817 0 10 tcp 1000 ------- 1 0.0 10.0 8 110
- 6.367817 0 10 tcp 1000 ------- 1 0.0 10.0 8 110
+ 6.375226 0 10 tcp 1000 ------- 1 0.0 10.0 8 111
- 6.375817 0 10 tcp 1000 ------- 1 0.0 10.0 8 111
r 6.377817 0 10 tcp 1000 ------- 1 0.0 10.0 8 110
+ 6.377817 10 0 ack 40 ------- 1 10.0 0.0 8 112
- 6.377817 10 0 ack 40 ------- 1 10.0 0.0 8 112
r 6.380137 10 0 ack 40 ------- 1 10.0 0.0 8 112
r 6.385817 0 10 tcp 1000 ------- 1 0.0 10.0 8 111
+ 6.385817 10 0 ack 40 ------- 1 10.0 0.0 8 113
- 6.385817 10 0 ack 40 ------- 1 10.0 0.0 8 113
r 6.388137 10 0 ack 40 ------- 1 10.0 0.0 8 113
+ 6.411161 1 11 tcp 1000 ------- 4 1.0 11.0 6 114
- 6.411161 1 11 tcp 1000 ------- 4 1.0 11.0 6 114
r 6.421161 1 11 tcp 1000 ------- 4 1.0 11.0 6 114
+ 6.421161 11 1 ack 40 ------- 4 11.0 1.0 6 115
- 6.421161 11 1 ack 40 ------- 4 11.0 1.0 6 115
r 6.423481 11 1 ack 40 ------- 4 11.0 1.0 6 115
+ 6.6208 8 18 tcp 1000 ------- 0 8.0 18.0 2 116
- 6.6208 8 18 tcp 1000 ------- 0 8.0 18.0 2 116
r 6.6308 8 18 tcp 1000 ------- 0 8.0 18.0 2 116
+ 6.6308 18 8 ack 40 ------- 0 18.0 8.0 2 117
- 6.6308 18 8 ack 40 ------- 0 18.0 8.0 2 117
r 6.63312 18 8 ack 40 ------- 0 18.0 8.0 2 117
+ 6.662341 3 13 tcp 1000 ------- 9 3.1 13.1 3 118
- 6.662341 3 13 tcp 1000 ------- 9 3.1 13.1 3 118
r 6.672341 3 13 tcp 1000 ------- 9 3.1 13.1 3 118
+ 6.672341 13 3 ack 40 ------- 9 13.1 3.1 3 119
- 6.672341 13 3 ack 40 ------- 9 13.1 3.1 3 119
r 6.674661 13 3 ack 40 ------- 9 13.1 3.1 3 119
+ 6.712982 8 18 tcp 1000 ------- 0 8.0 18.0 3 120
- 6.712982 8 18 tcp 1000 ------- 0 8.0 18.0 3 120
r 6.722982 8 18 tcp 1000 ------- 0 8.0 18.0 3 120
+ 6.722982 18 8 ack 40 ------- 0 18.0 8.0 3 121
- 6.722982 18 8 ack 40 ------- 0 18.0 8.0 3 121
r 6.725302 18 8 ack 40 ------- 0 18.0 8.0 3 121
+ 6.774013 1 11 tcp 1000 ------- 4 1.0 11.0 7 122
- 6.774013 1 11 tcp 1000 ------- 4 1.0 11.0 7 122
r 6.784013 1 11 tcp 1000 ------- 4 1.0 11.0 7 122
+ 6.784013 11 1 ack 40 ------- 4 11.0 1.0 7 123
- 6.784013 11 1 ack 40 ------- 4 11.0 1.0 7 123
r 6.786333 11 1 ack 40 ------- 4 11.0 1.0 7 123
+ 6.946008 3 13 tcp 1000 ------- 2 3.0 13.0 4 124
- 6.946008 3 13 tcp 1000 ------- 2 3.0 13.0 4 124
r 6.956008 3 13 tcp 1000 ------- 2 3.0 13.0 4 124
+ 6.956008 13 3 ack 40 ------- 2 13.0 3.0 4 125
- 6.956008 13 3 ack 40 ------- 2 13.0 3.0 4 125
r 6.958328 13 3 ack 40 ------- 2 13.0 3.0 4 125
+ 7.011931 1 11 tcp 1000 ------- 7 1.2 11.2 6 126
- 7.011931 1 11 tcp 1000 ------- 7 1.2 11.2 6 126
r 7.021931 1 11 tcp 1000 ------- 7 1.2 11.2 6 126
+ 7.021931 11 1 ack 40 ------- 7 11.2 1.2 6 127
- 7.021931 11 1 ack 40 ------- 7 11.2 1.2 6 127
r 7.024251 11 1 ack 40 ------- 7 11.2 1.2 6 127
+ 7.067322 9 19 tcp 1000 ------- 6 9.0 19.0 3 128
- 7.067322 9 19 tcp 1000 ------- 6 9.0 19.0 3 128
r 7.077322 9 19 tcp 1000 ------- 6 9.0 19.0 3 128
+ 7.077322 19 9 ack 40 ------- 6 19.0 9.0 3 129
- 7.077322 19 9 ack 40 ------- 6 19.0 9.0 3 129
r 7.079642 19 9 ack 40 ------- 6 19.0 9.0 3 129
+ 7.193727 9 19 tcp 1000 ------- 6 9.0 19.0 4 130
- 7.193727 9 19 tcp 1000 ------- 6 9.0 19.0 4 130
r 7.203727 9 19 tcp 1000 ------- 6 9.0 19.0 4 130
+ 7.203727 19 9 ack 40 ------- 6 19.0 9.0 4 131
- 7.203727 19 9 ack 40 ------- 6 19.0 9.0 4 131
r 7.206047 19 9 ack 40 ------- 6 19.0 9.0 4 131
+ 7.321566 9 19 tcp 1000 ------- 6 9.0 19.0 5 132
- 7.321566 9 19 tcp 1000 ------- 6 9.0 19.0 5 132
r 7.331566 9 19 tcp 1000 ------- 6 9.0 19.0 5 132
+ 7.331566 19 9 ack 40 ------- 6 19.0 9.0 5 133
- 7.331566 19 9 ack 40 ------- 6 19.0 9.0 5 133
r 7.333886 19 9 ack 40 ------- 6 19.0 9.0 5 133
+ 7.469791 0 10 tcp 1000 ------- 1 0.0 10.0 9 134
- 7.469791 0 10 tcp 1000 ------- 1 0.0 10.0 9 134
r 7.479791 0 10 tcp 1000 ------- 1 0.0 10.0 9 134
+ 7.479791 10 0 ack 40 ------- 1 10.0 0.0 9 135
- 7.479791 10 0 ack 40 ------- 1 10.0 0.0 9 135
r 7.482111 10 0 ack 40 ------- 1 10.0 0.0 9 135
+ 7.537446 9 19 tcp 1000 ------- 6 9.0 19.0 6 136
- 7.537446 9 19 tcp 1000 ------- 6 9.0 19.0 6 136
r 7.547446 9 19 tcp 1000 ------- 6 9.0 19.0 6 136
+ 7.547446 19 9 ack 40 ------- 6 19.0 9.0 6 137
- 7.547446 19 9 ack 40 ------- 6 19.0 9.0 6 137
r 7.549766 19 9 ack 40 ------- 6 19.0 9.0 6 137
+ 7.58516 8 18 tcp 1000 ------- 3 8.1 18.1 7 138
- 7.58516 8 18 tcp 1000 ------- 3 8.1 18.1 7 138
r 7.59516 8 18 tcp 1000 ------- 3 8.1 18.1 7 138
+ 7.59516 18 8 ack 40 ------- 3 18.1 8.1 7 139
- 7.59516 18 8 ack 40 ------- 3 18.1 8.1 7 139
r 7.59748 18 8 ack 40 ------- 3 18.1 8.1 7 139
+ 7.720163 8 18 tcp 1000 ------- 0 8.0 18.0 4 140
- 7.720163 8 18 tcp 1000 ------- 0 8.0 18.0 4 140
r 7.730163 8 18 tcp 1000 ------- 0 8.0 18.0 4 140
+ 7.730163 18 8 ack 40 ------- 0 18.0 8.0 4 141
- 7.730163 18 8 ack 40 ------- 0 18.0 8.0 4 141
r 7.732483 18 8 ack 40 ------- 0 18.0 8.0 4 141
+ 7.865886 8 18 tcp 1000 ------- 3 8.1 18.1 8 142
- 7.865886 8 18 tcp 1000 ------- 3 8.1 18.1 8 142
r 7.875886 8 18 tcp 1000 ------- 3 8.1 18.1 8 142
+ 7.875886 18 8 ack 40 ------- 3 18.1 8.1 8 143
- 7.875886 18 8 ack 40 ------- 3 18.1 8.1 8 143
r 7.878206 18 8 ack 40 ------- 3 18.1 8.1 8 143
+ 7.961492 1 11 tcp 1000 ------- 4 1.0 11.0 8 144
- 7.961492 1 11 tcp 1000 ------- 4 1.0 11.0 8 144
r 7.971492 1 11 tcp 1000 ------- 4 1.0 11.0 8 144
+ 7.971492 11 1 ack 40 ------- 4 11.0 1.0 8 145
- 7.971492 11 1 ack 40 ------- 4 11.0 1.0 8 145
r 7.973812 11 1 ack 40 ------- 4 11.0 1.0 8 145
+ 8.102079 8 18 tcp 1000 ------- 3 8.1 18.1 9 146
- 8.102079 8 18 tcp 1000 ------- 3 8.1 18.1 9 146
r 8.112079 8 18 tcp 1000 ------- 3 8.1 18.1 9 146
+ 8.112079 18 8 ack 40 ------- 3 18.1 8.1 9 147
- 8.112079 18 8 ack 40 ------- 3 18.1 8.1 9 147
r 8.114399 18 8 ack 40 ------- 3 18.1 8.1 9 147
+ 8.145958 1 11 tcp 1000 ------- 7 1.2 11.2 7 148
- 8.145958 1 11 tcp 1000 ------- 7 1.2 11.2 7 148
r 8.155958 1 11 tcp 1000 ------- 7 1.2 11.2 7 148
+ 8.155958 11 1 ack 40 ------- 7 11.2 1.2 7 149
- 8.155958 11 1 ack 40 ------- 7 11.2 1.2 7 149
r 8.158278 11 1 ack 40 ------- 7 11.2 1.2 7 149
+ 8.205716 8 18 tcp 1000 ------- 0 8.0 18.0 5 150
- 8.205716 8 18 tcp 1000 ------- 0 8.0 18.0 5 150
r 8.215716 8 18 tcp 1000 ------- 0 8.0 18.0 5 150
+ 8.215716 18 8 ack 40 ------- 0 18.0 8.0 5 151
- 8.215716 18 8 ack 40 ------- 0 18.0 8.0 5 151
r 8.218036 18 8 ack 40 ------- 0 18.0 8.0 5 151
+ 8.613984 1 11 tcp 1000 ------- 4 1.0 11.0 9 152
- 8.613984 1 11 tcp 1000 ------- 4 1.0 11.0 9 152
r 8.623984 1 11 tcp 1000 ------- 4 1.0 11.0 9 152
+ 8.623984 11 1 ack 40 ------- 4 11.0 1.0 9 153
- 8.623984 11 1 ack 40 ------- 4 11.0 1.0 9 153
r 8.626304 11 1 ack 40 ------- 4 11.0 1.0 9 153
+ 8.769409 1 11 tcp 1000 ------- 8 1.3 11.3 4 154
- 8.769409 1 11 tcp 1000 ------- 8 1.3 11.3 4 154
r 8.779409 1 11 tcp 1000 ------- 8 1.3 11.3 4 154
+ 8.779409 11 1 ack 40 ------- 8 11.3 1.3 4 155
- 8.779409 11 1 ack 40 ------- 8 11.3 1.3 4 155
r 8.781729 11 1 ack 40 ------- 8 11.3 1.3 4 155
+ 8.897787 8 18 tcp 1000 ------- 3 8.1 18.1 10 156
- 8.897787 8 18 tcp 1000 ------- 3 8.1 18.1 10 156
r 8.907787 8 18 tcp 1000 ------- 3 8.1 18.1 10 156
+ 8.907787 18 8 ack 40 ------- 3 18.1 8.1 10 157
- 8.907787 18 8 ack 40 ------- 3 18.1 8.1 10 157
r 8.910107 18 8 ack 40 ------- 3 18.1 8.1 10 157
+ 9.234603 0 10 tcp 1000 ------- 1 0.0 10.0 10 158
- 9.234603 0 10 tcp 1000 ------- 1 0.0 10.0 10 158
r 9.244603 0 10 tcp 1000 ------- 1 0.0 10.0 10 158
+ 9.244603 10 0 ack 40 ------- 1 10.0 0.0 10 159
- 9.244603 10 0 ack 40 ------- 1 10.0 0.0 10 159
r 9.246923 10 0 ack 40 ------- 1 10.0 0.0 10 159
+ 9.435159 1 11 tcp 1000 ------- 4 1.0 11.0 10 160
- 9.435159 1 11 tcp 1000 ------- 4 1.0 11.0 10 160
r 9.445159 1 11 tcp 1000 ------- 4 1.0 11.0 10 160
+ 9.445159 11 1 ack 40 ------- 4 11.0 1.0 10 161
- 9.445159 11 1 ack 40 ------- 4 11.0 1.0 10 161
r 9.447479 11 1 ack 40 ------- 4 11.0 1.0 10 161
+ 9.54117 1 11 tcp 1000 ------- 4 1.0 11.0 11 162
- 9.54117 1 11 tcp 1000 ------- 4 1.0 11.0 11 162
r 9.55117 1 11 tcp 1000 ------- 4 1.0 11.0 11 162
+ 9.55117 11 1 ack 40 ------- 4 11.0 1.0 11 163
- 9.55117 11 1 ack 40 ------- 4 11.0 1.0 11 163
r 9.55349 11 1 ack 40 ------- 4 11.0 1.0 11 163
+ 9.596723 1 11 tcp 1000 ------- 8 1.3 11.3 5 164
- 9.596723 1 11 tcp 1000 ------- 8 1.3 11.3 5 164
r 9.606723 1 11 tcp 1000 ------- 8 1.3 11.3 5 164
+ 9.606723 11 1 ack 40 ------- 8 11.3 1.3 5 165
- 9.606723 11 1 ack 40 ------- 8 11.3 1.3 5 165
r 9.609043 11 1 ack 40 ------- 8 11.3 1.3 5 165
+ 9.718028 1 11 tcp 1000 ------- 7 1.2 11.2 8 166
- 9.718028 1 11 tcp 1000 ------- 7 1.2 11.2 8 166
r 9.728028 1 11 tcp 1000 ------- 7 1.2 11.2 8 166
+ 9.728028 11 1 ack 40 ------- 7 11.2 1.2 8 167
- 9.728028 11 1 ack 40 ------- 7 11.2 1.2 8 167
r 9.730348 11 1 ack 40 ------- 7 11.2 1.2 8 167
+ 10.002784 8 18 tcp 1000 ------- 3 8.1 18.1 11 168
- 10.002784 8 18 tcp 1000 ------- 3 8.1 18.1 11 168
r 10.012784 8 18 tcp 1000 ------- 3 8.1 18.1 11 168
+ 10.012784 18 8 ack 40 ------- 3 18.1 8.1 11 169
- 10.012784 18 8 ack 40 ------- 3 18.1 8.1 11 169
r 10.015104 18 8 ack 40 ------- 3 18.1 8.1 11 169
+ 10.079901 3 13 tcp 1000 ------- 9 3.1 13.1 4 170
- 10.079901 3 13 tcp 1000 ------- 9 3.1 13.1 4 170
r 10.089901 3 13 tcp 1000 ------- 9 3.1 13.1 4 170
+ 10.089901 13 3 ack 40 ------- 9 13.1 3.1 4 171
- 10.089901 13 3 ack 40 ------- 9 13.1 3.1 4 171
r 10.092221 13 3 ack 40 ------- 9 13.1 3.1 4 171
+ 10.386897 3 13 tcp 1000 ------- 9 3.1 13.1 5 172
- 10.386897 3 13 tcp 1000 ------- 9 3.1 13.1 5 172
r 10.396897 3 13 tcp 1000 ------- 9 3.1 13.1 5 172
+ 10.396897 13 3 ack 40 ------- 9 13.1 3.1 5 173
- 10.396897 13 3 ack 40 ------- 9 13.1 3.1 5 173
r 10.399217 13 3 ack 40 ------- 9 13.1 3.1 5 173
+ 10.439752 1 11 tcp 1000 ------- 8 1.3 11.3 6 174
- 10.439752 1 11 tcp 1000 ------- 8 1.3 11.3 6 174
r 10.449752 1 11 tcp 1000 ------- 8 1.3 11.3 6 174
+ 10.449752 11 1 ack 40 ------- 8 11.3 1.3 6 175
- 10.449752 11 1 ack 40 ------- 8 11.3 1.3 6 175
r 10.452072 11 1 ack 40 ------- 8 11.3 1.3 6 175
+ 10.548674 1 11 tcp 1000 ------- 8 1.3 11.3 7 176
- 10.548674 1 11 tcp 1000 ------- 8 1.3 11.3 7 176
r 10.558674 1 11 tcp 1000 ------- 8 1.3 11.3 7 176
+ 10.558674 11 1 ack 40 ------- 8 11.3 1.3 7 177
- 10.558674 11 1 ack 40 ------- 8 11.3 1.3 7 177
r 10.560994 11 1 ack 40 ------- 8 11.3 1.3 7 177
+ 10.578571 1 11 tcp 1000 ------- 7 1.2 11.2 9 178
- 10.578571 1 11 tcp 1000 ------- 7 1.2 11.2 9 178
r 10.588571 1 11 tcp 1000 ------- 7 1.2 11.2 9 178
+ 10.588571 11 1 ack 40 ------- 7 11.2 1.2 9 179
- 10.588571 11 1 ack 40 ------- 7 11.2 1.2 9 179
r 10.590891 11 1 ack 40 ------- 7 11.2 1.2 9 179
+ 10.740169 1 11 tcp 1000 ------- 7 1.2 11.2 10 180
- 10.740169 1 11 tcp 1000 ------- 7 1.2 11.2 10 180
r 10.750169 1 11 tcp 1000 ------- 7 1.2 11.2 10 180
+ 10.750169 11 1 ack 40 ------- 7 11.2 1.2 10 181
- 10.750169 11 1 ack 40 ------- 7 11.2 1.2 10 181
r 10.752489 11 1 ack 40 ------- 7 11.2 1.2 10 181
+ 10.900549 8 18 tcp 1000 ------- 3 8.1 18.1 12 182
- 10.900549 8 18 tcp 1000 ------- 3 8.1 18.1 12 182
r 10.910549 8 18 tcp 1000 ------- 3 8.1 18.1 12 182
+ 10.910549 18 8 ack 40 ------- 3 18.1 8.1 12 183
- 10.910549 18 8 ack 40 ------- 3 18.1 8.1 12 183
r 10.912869 18 8 ack 40 ------- 3 18.1 8.1 12 183
+ 10.981297 9 19 tcp 1000 ------- 6 9.0 19.0 7 184
- 10.981297 9 19 tcp 1000 ------- 6 9.0 19.0 7 184
r 10.991297 9 19 tcp 1000 ------- 6 9.0 19.0 7 184
+ 10.991297 19 9 ack 40 ------- 6 19.0 9.0 7 185
- 10.991297 19 9 ack 40 ------- 6 19.0 9.0 7 185
r 10.993617 19 9 ack 40 ------- 6 19.0 9.0 7 185
+ 11.022059 1 11 tcp 1000 ------- 8 1.3 11.3 8 186
- 11.022059 1 11 tcp 1000 ------- 8 1.3 11.3 8 186
r 11.032059 1 11 tcp 1000 ------- 8 1.3 11.3 8 186
+ 11.032059 11 1 ack 40 ------- 8 11.3 1.3 8 187
- 11.032059 11 1 ack 40 ------- 8 11.3 1.3 8 187
r 11.034379 11 1 ack 40 ------- 8 11.3 1.3 8 187
+ 11.082239 1 11 tcp 1000 ------- 4 1.0 11.0 12 188
- 11.082239 1 11 tcp 1000 ------- 4 1.0 11.0 12 188
r 11.092239 1 11 tcp 1000 ------- 4 1.0 11.0 12 188
+ 11.092239 11 1 ack 40 ------- 4 11.0 1.0 12 189
- 11.092239 11 1 ack 40 ------- 4 11.0 1.0 12 189
r 11.094559 11 1 ack 40 ------- 4 11.0 1.0 12 189
+ 11.110969 3 13 tcp 1000 ------- 9 3.1 13.1 6 190
- 11.110969 3 13 tcp 1000 ------- 9 3.1 13.1 6 190
r 11.120969 3 13 tcp 1000 ------- 9 3.1 13.1 6 190
+ 11.120969 13 3 ack 40 ------- 9 13.1 3.1 6 191
- 11.120969 13 3 ack 40 ------- 9 13.1 3.1 6 191
r 11.123289 13 3 ack 40 ------- 9 13.1 3.1 6 191
+ 11.219956 1 11 tcp 1000 ------- 4 1.0 11.0 13 192
- 11.219956 1 11 tcp 1000 ------- 4 1.0 11.0 13 192
r 11.229956 1 11 tcp 1000 ------- 4 1.0 11.0 13 192
+ 11.229956 11 1 ack 40 ------- 4 11.0 1.0 13 193
- 11.229956 11 1 ack 40 ------- 4 11.0 1.0 13 193
r 11.232276 11 1 ack 40 ------- 4 11.0 1.0 13 193
+ 11.361748 0 10 tcp 1000 ------- 1 0.0 10.0 11 194
- 11.361748 0 10 tcp 1000 ------- 1 0.0 10.0 11 194
r 11.371748 0 10 tcp 1000 ------- 1 0.0 10.0 11 194
+ 11.371748 10 0 ack 40 ------- 1 10.0 0.0 11 195
- 11.371748 10 0 ack 40 ------- 1 10.0 0.0 11 195
r 11.374068 10 0 ack 40 ------- 1 10.0 0.0 11 195
+ 11.709593 0 10 tcp 1000 ------- 1 0.0 10.0 12 196
- 11.709593 0 10 tcp 1000 ------- 1 0.0 10.0 12 196
r 11.719593 0 10 tcp 1000 ------- 1 0.0 10.0 12 196
+ 11.719593 10 0 ack 40 ------- 1 10.0 0.0 12 197
- 11.719593 10 0 ack 40 ------- 1 10.0 0.0 12 197
r 11.721913 10 0 ack 40 ------- 1 10.0 0.0 12 197
+ 11.767271 1 11 tcp 1000 ------- 4 1.0 11.0 14 198
- 11.767271 1 11 tcp 1000 ------- 4 1.0 11.0 14 198
r 11.777271 1 11 tcp 1000 ------- 4 1.0 11.0 14 198
+ 11.777271 11 1 ack 40 ------- 4 11.0 1.0 14 199
- 11.777271 11 1 ack 40 ------- 4 11.0 1.0 14 199
r 11.779591 11 1 ack 40 ------- 4 11.0 1.0 14 199
+ 11.95331 1 11 tcp 1000 ------- 4 1.0 11.0 15 200
- 11.95331 1 11 tcp 1000 ------- 4 1.0 11.0 15 200
r 11.96331 1 11 tcp 1000 ------- 4 1.0 11.0 15 200
+ 11.96331 11 1 ack 40 ------- 4 11.0 1.0 15 201
- 11.96331 11 1 ack 40 ------- 4 11.0 1.0 15 201
r 11.96563 11 1 ack 40 ------- 4 11.0 1.0 15 201
+ 12.341059 8 18 tcp 1000 ------- 0 8.0 18.0 6 202
- 12.341059 8 18 tcp 1000 ------- 0 8.0 18.0 6 202
+ 12.346421 8 18 tcp 1000 ------- 3 8.1 18.1 13 203
- 12.349059 8 18 tcp 1000 ------- 3 8.1 18.1 13 203
r 12.351059 8 18 tcp 1000 ------- 0 8.0 18.0 6 202
+ 12.351059 18 8 ack 40 ------- 0 18.0 8.0 6 204
- 12.351059 18 8 ack 40 ------- 0 18.0 8.0 6 204
r 12.353379 18 8 ack 40 ------- 0 18.0 8.0 6 204
r 12.359059 8 18 tcp 1000 ------- 3 8.1 18.1 13 203
+ 12.359059 18 8 ack 40 ------- 3 18.1 8.1 13 205